Cpptraj Generated Restart                                                       
  103  0.0000000E+00
  94.6100044 101.3700008  58.0700016  93.2800007 100.8700085  58.3600044
  92.8299999 100.4600048  59.6300030  93.5100079 100.8800030  60.8000040
  93.0100060 100.5900002  62.1100044  93.8000011 101.0600090  63.3200026
  94.9800014 101.4400005  63.2700014  93.3400059 100.6400013  64.4800043
  92.1500015 100.0200081  64.6900034  91.6200066  99.8300076  65.9700012
  92.3300076 100.4400063  67.0000029  92.6100063  99.8300076  68.3200026
  90.3700066  99.1400051  66.1500025  89.9000072  99.0500069  67.4200010
  88.6200047  98.3600044  67.8400040  88.2600021  98.9500046  69.0900040
  87.0200062  98.4600067  69.6400023  86.7100048  99.4700050  70.8200026
  86.4600086 100.8900070  70.4100037  86.0200024 101.8100071  71.2900019
  85.8300018 103.1300068  70.6000042  85.9300041 101.5800095  72.5000048
  87.2700024  96.9800091  70.0600052  86.0900021  96.4600086  70.7500029
  86.3000011  95.2900028  71.4900017  85.0300026  94.4300079  71.6900015
  87.4000072  94.9200058  71.8900013  87.7400017  96.1800003  68.8500023
  88.0500031  94.7900009  69.1600037  87.6500034  93.6900043  68.2900047
  87.1500015  93.9300060  67.1800041  87.8900051  92.3000050  68.8600016
  89.0300083  92.0100021  69.6400023  89.1700077  90.7000065  70.2500010
  90.1400089  90.5200005  71.2500048  90.5500031  91.3500023  72.2400045
  91.8700027  90.8600044  72.8500032  89.8900032  92.3300076  72.6800013
  88.3600044  89.6400070  69.8900032  88.5900021  88.3400059  70.4000044
  88.2800007  88.0000019  71.7000055  88.7600040  86.5799999  72.0300055
  87.7600002  88.7400055  72.4700022  87.2900009  89.9300003  68.9800024
  86.4100075  88.9100075  68.5600042  86.3400078  88.4500027  67.2700024
  85.8200073  87.0600033  67.1100044  86.6300011  89.1200066  66.3000011
  87.0000076  91.2900066  68.5100031  88.9100075  96.8700027  68.0500031
  89.1400051  96.2400055  66.7800045  89.9200058  95.1300049  66.6600037
  89.7200012  94.4500065  65.3400040  90.7299995  94.8000050  67.4600029
  89.6500015  98.6900043  65.0300026  90.2100086  98.8300037  63.7600040
  89.4500065  98.3100033  62.5700045  88.5000038  97.5500011  62.7800035
  90.1100063  98.4100056  61.3500023  91.2500000  99.2200089  61.1600018
  91.6200066  99.6500015  59.7900009  90.8000088  99.2500019  58.7100029
  90.7100010 100.0700092  57.6200008  91.9500065  99.7100067  62.2700024
  91.4900017  99.4500065  63.5900021  95.3700066 100.6900024  58.4700012
  94.7000027 102.4200058  58.3900023  94.6300030 101.3500023  56.9700050
  94.4400024 101.3900089  60.5500031  91.6499996  99.6700001  68.8300037
  92.9400063  98.8100052  68.1000042  93.3600044 100.3900051  68.8900042
  87.7800083  98.4800053  67.1500015  86.2700081  98.5000038  68.8400030
  87.5500011  99.3900013  71.5300035  85.8100033  99.0900040  71.3200045
  86.7200089 103.2900047  69.9900055  85.6599998 103.9900017  71.2600040
  85.0600052 103.0100060  69.8300028  88.0200005  97.0200062  70.8600044
  84.2300034  95.1600075  71.8400049  85.1800060  93.6900043  72.4900055
  84.8600006  93.9800072  70.7000017  86.8500042  96.2000084  68.2000017
  89.8300076  92.7100086  69.8400021  92.1300030  91.5500069  73.6500025
  92.7400017  90.6900024  72.2000027  91.6600037  89.9400043  73.4100056
  88.6200047  86.2500000  73.0700016  88.3600044  85.9500027  71.2300014
  89.8000050  86.5300083  71.6800022  84.7399998  87.1500015  67.2500038
  86.0100079  86.6600037  66.1100054  86.2000084  86.4000034  67.9000044
  86.1600018  91.4900017  67.8600025  89.8400021  96.7500019  68.6200047
  90.6900024  94.0500069  65.0100040  88.9700031  93.6500072  65.3000021
  89.3800068  95.2000046  64.6200037  88.6700058  98.2700062  65.1700020
  90.4500008 101.0900021  57.9400015  91.5700054 100.1900005  56.9600010
  89.9100018  99.7700024  56.9300032
