Cpptraj Generated Restart                                                       
 9043  0.0000000E+00
 105.0600052   4.7700003  29.1700006 105.5700016   4.8900002  30.0700021
 105.7400036   4.9500003  28.4100008 104.3500042   5.5300003  29.0700006
 104.3900013   3.4500003  29.2200017 105.2200031   2.7800003  29.4200015
 103.2600021   3.3900002  30.2800012 102.6400089   2.4700001  30.1700020
 102.5100040   4.2100003  30.1700020 103.8200092   3.1800002  31.7400026
 104.4300079   4.1000003  31.8900013 104.4600010   2.2800002  31.7800021
 102.5200081   2.9900002  33.0100012 101.7000008   1.5300001  32.4100018
 102.4900055   0.8600000  32.0100021 100.9900093   1.0700001  33.1400013
 100.9200001   1.8500000  31.6900015 103.7500095   3.1400001  27.8200006
 102.6200008   3.5400000  27.5600004 104.3500042   2.2700001  27.0000005
 105.2900028   2.0000000  27.2100019 103.7800026   1.5800001  25.8000016
 103.1900024   2.2400001  25.1900005 104.9200058   1.2000000  24.8600006
 105.5100060   0.5100000  25.5000019 105.6500053   2.0100001  24.6600008
 104.5400047   0.3700000  23.5700011 104.1600037 122.9800034  23.9600015
 105.5300045   0.2200000  23.0800009 103.3200073   1.1500000  22.5500011
 104.4100094   2.5300002  22.1100020 105.4600048   2.2000001  21.9600010
 104.0100002   3.2400000  21.3700008 104.4200039   3.1800002  23.0200005
 102.8000069   0.4900000  26.1000013 103.2400036 123.1100082  26.6400003
 101.5400028   0.6400000  25.6600022 101.1900043   1.3700001  25.0900006
 100.5900002 123.1400013  25.9800005 100.9600067 122.7400017  26.9100022
  99.0900040   0.1400000  26.2000012  98.3400059 122.9000092  26.2800002
  98.8300037   0.5900000  25.2100015  98.9100075   1.0700001  27.4100018
  99.4700050   2.0200001  27.3400021  99.3100071   0.6200000  28.3500004
  97.4500084   1.4800000  27.8200006  96.9600010   1.0900000  28.8800025
  96.8600082   2.3800001  27.0900011 100.5300045 122.0600033  24.9200010
 100.7700062 122.1900082  23.7200022 100.3900051 120.8500099  25.4000020
 100.4000092 120.6500053  26.3700008 100.0500011 119.6500015  24.6100020
 100.6900024 119.5800018  23.7300014 100.2100086 118.3900070  25.5400014
  99.7700024 117.5100040  25.0100017  99.8700047 118.5400009  26.5800023
 101.6700077 118.0600071  25.8600020 101.5900040 117.1100044  26.4100003
 102.1600056 118.8400078  26.5000010 102.4400043 117.7400017  24.5000005
 102.1900082 116.6800022  23.8900018 103.3600044 118.6100101  24.0300012
 103.6500072 119.3800068  24.6000004 103.7600040 118.4200096  23.1300020
  98.6400032 119.6300030  24.0200019  97.6000023 120.0400066  24.5700002
  98.6100006 119.0600014  22.8100014  99.4800091 118.9300060  22.3300004
  97.3700047 118.7400055  22.1000004  96.7800045 119.6400070  22.0600009
  97.6800060 118.3000088  20.6800008  98.6600018 117.7700043  20.7300019
  96.6100025 117.4100018  20.0000000  96.8800068 117.1400070  18.9600015
  96.5700054 116.5000057  20.6300020  95.6200027 117.8900051  19.8700011
  98.0100060 119.5100021  19.8600006  97.1800041 120.2300072  19.9700010
  98.9700031 119.9900055  20.1600003  98.2400036 119.3600082  18.7800014
  96.5600014 117.7200031  22.8800011  95.3400040 117.8400040  23.0100012
  97.2200012 116.6900063  23.5200000  98.2100010 116.7300034  23.5200000
  96.4300060 115.8500099  24.4000006  95.6800079 115.3700066  23.7900019
  97.1800041 114.5300007  24.7400022  97.6000023 114.0900040  23.8100004
  96.4200020 113.8100052  25.1000023  98.4900093 114.7400093  25.9300017
  99.2300034 114.9900055  24.8700023  95.7400036 116.4000034  25.6500006
  94.6400070 116.0200024  25.9500003  96.4500046 117.3700047  26.3300014
  97.4100018 117.5700092  26.1400008  95.8900070 118.2600021  27.3300004
  95.4300022 117.5400066  27.9900002  97.0900059 119.0300083  27.9400015
  96.6500092 119.9200058  28.4400010  97.7700043 119.4300079  27.1600008
  97.9500008 118.1400013  28.9300013  97.2900009 117.3200035  29.5900011
  99.1600037 118.2800102  29.1400003  94.8100090 119.2400074  26.8900013
  93.8000011 119.4200039  27.5600004  94.9100018 120.0400066  25.8000016
  95.7800007 120.0400066  25.3300023  93.8100052 120.9600067  25.3000021
  93.5300064 121.6500092  26.0800004  94.2400074 121.8100071  24.1000009
  94.5200062 121.1500072  23.2500005  93.1800079 122.8200054  23.6700010
  93.6100006 123.3400059  22.7800012  92.1600056 122.4200058  23.5000014
  92.8700066   0.0100000  24.4100022  95.4800034 122.6600075  24.5600009
  95.1900005 123.2600021  25.4500008  96.3700008 122.0400047  24.7600007
  95.7500076 123.4100056  23.7800002  92.6000023 120.2500057  24.9100018
  91.4900017 120.6000042  25.2500010  92.6500034 119.0500069  24.3100023
  93.4800053 118.5400009  24.0900016  91.4300060 118.4200096  23.7700009
  90.5700016 119.0700054  23.7200022  91.8500042 118.0800056  22.3100019
  91.1100006 117.4300098  21.8000007  92.8400040 117.5700092  22.3400021
  92.0000076 119.3600082  21.4400005  90.9100056 120.1900101  21.1700010
  90.0300026 120.0900078  21.7900014  90.9700012 121.4100075  20.5300021
  90.0900078 122.0200062  20.4200006  92.1600056 121.7600060  19.9300015
  92.2000027 122.6500034  19.3200004  93.1599998 119.7100067  20.7600021
  94.0300083 119.1100025  20.9700012  93.3100033 120.9300041  20.0999999
  94.2800045 121.1400032  19.7000015  90.9600067 117.1900082  24.5600009
  90.0699997 116.4700031  24.1300011  91.6000080 117.0500088  25.7500005
  92.2100067 117.8000069  26.0000014  91.3000011 115.9200096  26.6300011
  92.2600079 115.7500076  27.0900011  90.3800011 116.4000034  27.8400016
  90.0699997 115.5500031  28.4800005  89.4099998 116.9000053  27.6300025
  91.1900043 117.3300076  28.6900020  92.1500015 116.9400024  29.4000006
  90.7900047 118.5000038  28.8000011  91.0700035 114.5100021  25.9700012
  89.9600029 113.8900089  26.2200022  92.0800018 113.9700031  25.2300000
  92.8900051 114.5500088  25.1100016  92.1700001 112.7300072  24.5600009
  91.1600018 112.4300098  24.3000007  93.0700016 112.9200077  23.3000016
  94.1300011 113.0000019  23.6300015  92.8900051 111.6400051  22.4600005
  93.4000015 110.7500076  22.8900003  91.8000031 111.3900089  22.4000001
  93.3500004 111.7900085  21.4700007  92.7400017 114.1700077  22.4200010
  92.8700066 115.1900101  22.8600001  91.6600037 114.0400028  22.2200012
  93.6300087 114.3700027  21.2000012  94.6700001 114.3300056  21.6100001
  93.5900021 113.6400032  20.3700018  93.5000038 115.3800011  20.7500005
  92.6900005 111.6600037  25.5300021  93.8600063 111.6100025  25.8800006
  91.7700005 110.6600094  25.8100009  90.8800030 110.6700039  25.3600001
  92.0900059 109.4700050  26.6300011  93.1200027 109.5700073  26.9600010
  91.3600063 109.2600060  27.9600024  91.8300056 108.5100079  28.6200023
  90.3200054 108.9200020  27.7600002  91.3500023 110.6000042  28.7600017
  92.3500061 110.9200096  29.6700025  93.1700039 110.2300072  29.7100019
  92.4100018 112.1400070  30.3200006  93.1900024 112.3700047  31.0300016
  91.3400078 113.0700016  30.0800014  91.4000034 114.3000031  30.7500005
  91.3100052 115.0000095  30.1000023  90.3700066 111.5800095  28.4900022
  89.6500015 111.2600040  27.7500010  90.3100014 112.8100014  29.1500020
  89.4600010 113.4700012  29.0600014  92.0000076 108.2800007  25.7500005
  91.5400028 108.3100033  24.5900011  92.6000023 107.2000027  26.1600018
  93.0000019 107.2000027  27.0700002  92.3300076 105.9800053  25.4900002
  91.7400074 106.1500072  24.6000004  93.7000084 105.3200054  25.0800014
  94.2900085 106.1100006  24.5800018  94.1800022 104.8700047  25.9800005
  93.4000015 104.5100021  24.3800020  91.6499996 105.0900078  26.4800024
  91.7200089 105.2600098  27.6700020  91.0100079 104.0600014  26.0500002
  91.0100079 103.8900089  25.0600004  90.3600025 103.0200005  26.8300009
  90.8600044 102.9500008  27.7900004  88.9200020 103.3100033  27.2200012
  88.9100075 104.2600060  27.8000021  87.9800034 103.6400032  26.0300016
  87.0000076 104.0200043  26.4000010  88.3300018 104.3900013  25.3000021
  87.7000046 102.6900005  25.5300021  88.3600044 102.3400021  28.1600022
  89.1300011 102.0800018  28.9200020  88.0600071 101.4300060  27.6000023
  87.1600056 102.7100086  29.1100025  87.3700047 103.2000065  30.0800014
  86.4300060 103.3900070  28.6400008  86.7400074 101.7100048  29.3800020
  90.5000019 101.6700077  26.1000013  90.2100086 101.6200066  24.8800015
  90.9600067 100.5800056  26.7600012  91.1800003 100.6200027  27.7300024
  91.2600040  99.4000053  26.0200024  90.4200077  99.2700005  25.3400016
  92.6900005  99.3600082  25.4300022  92.7100086 100.1300049  24.6300006
  92.8800011  98.3700085  24.9600005  94.0799999  99.8300076  26.4800024
  94.1800022  98.7600040  27.2600007  91.0700035  98.2800007  27.0000005
  91.0400009  98.5600090  28.2200003  90.8500004  97.0300007  26.4500022
  90.6599998  97.0300007  25.4700017  90.7400036  95.8100033  27.2900009
  90.9600067  96.0500050  28.3200002  89.3000031  95.1600075  27.2900009
  88.5800076  95.8500004  27.7800012  88.8700008  94.9300003  26.2900019
  89.3100071  94.3200016  28.0200005  91.7700005  94.8200035  26.7400002
  91.8600082  94.4700050  25.5800009  92.5500011  94.1400051  27.6400018
  92.4100018  94.0500069  28.6300015  93.6100006  93.2400036  27.1400023
  93.5300064  93.0100060  26.0900021  95.1100063  93.8600063  27.1500015
  95.8800030  93.1000042  26.9200015  95.3200054  94.2700005  28.1600022
  95.2200031  95.3100014  26.1300015  94.0300083  95.8200073  26.4300013
  93.6200047  91.9800091  27.8800011  93.4400082  91.9900036  29.1100025
  93.7900066  90.8700085  27.1100020  93.6400032  90.8700085  26.1200023
  93.9900017  89.5200062  27.7300024  93.8300037  89.5100021  28.8000011
  92.9400063  88.5200024  27.2000003  91.9600010  89.0000057  27.4200010
  92.9700089  87.6000023  27.8200006  93.0400085  88.1300068  25.3900003
  93.8100052  87.0600033  25.5300021  95.4500008  88.9900017  27.6600003
  96.3000011  89.6100044  27.0300007  95.7700062  87.8600025  28.3500004
  95.0000000  87.4000072  28.7800002  96.9900036  87.1000004  28.3300018
  97.7800083  87.8299999  28.2800007  97.2700024  86.3100052  29.6000004
  98.2500076  85.7800007  29.5100021  96.5400028  85.5000019  29.7600007
  97.1000004  87.1400070  30.9400010  96.0700035  87.5300026  31.0300016
  97.8200054  87.9900074  30.9600019  97.4200058  86.3700008  32.1900010
  98.4600067  85.9800053  32.1100020  97.3800087  87.0500088  33.0600023
  96.5400028  85.1200008  32.3000026  96.9200039  84.1700077  31.8600011
  95.4700089  85.3600025  32.1100020  96.5300083  84.6600056  33.7700009
  95.9000015  83.8400078  33.8400006  97.4800014  84.3000031  34.0000010
  96.1800003  85.3700066  34.4400024  96.9700050  86.2300014  27.0100021
  95.9400082  85.7400036  26.4600015  98.1900024  86.1800003  26.4000010
  99.0000057  86.4700031  26.9000006  98.4000015  85.6400013  25.0700021
  97.5100040  85.7299995  24.4700003  99.5100021  86.4800072  24.3900013
 100.4200077  86.4700031  25.0400019  99.8300076  85.8500004  23.0500007
 100.3400040  86.6000080  22.4100018 100.5600071  85.0400066  23.2700014
  98.9200020  85.4100037  22.5900006  99.1100025  87.9300022  24.2300010
  98.1700039  88.0300045  23.6500001  99.0200043  88.3800030  25.2500010
  99.8400021  88.5300064  23.6400008  98.7100029  84.1000080  25.0800014
  99.3500042  83.5900021  25.9900022  98.1100082  83.3200073  24.1400003
  97.4700069  83.7300014  23.5000014  98.2700062  81.8100071  24.0400004
  97.6300049  81.3700008  24.7900009  97.8600025  81.3899994  22.6500010
  98.7000084  81.6100025  21.9600010  96.9099998  81.8900013  22.3699999
  97.5800037  79.8700047  22.5300002  98.2100010  79.2900038  23.2400012
  97.8700066  79.5400047  21.5100002  96.1700058  79.5300055  22.7900004
  95.4000092  79.2100048  21.8400002  95.8200073  79.3600035  24.0200019
  99.6900082  81.3500023  24.3300009  99.8300076  80.4400063  25.1200008
 100.7900047  81.9099998  23.7000012 100.6300068  82.6600075  23.0599999
 102.1800041  81.7900085  24.1100001 102.4300003  82.8100014  24.3300009
 102.4900055  80.8900070  25.3600001 102.2400093  79.8600054  25.0300002
 101.7300034  81.2400055  26.0900021 103.8400078  80.9700012  25.8000016
 103.8500023  80.9500027  26.7600012 103.1500053  81.3400078  22.9600000
 102.8800011  80.3700066  22.3300004 104.1800022  82.1100044  22.7000022
 104.3700027  82.9500008  23.2000017 105.1400089  81.9400024  21.6600013
 104.7500038  81.2000084  20.9800005 105.3100014  83.2800007  20.9600019
 105.9100056  83.9200020  21.6500020 104.3800068  83.8700008  20.8200002
 105.8600044  83.2100010  19.5100009 106.5000057  82.3400021  19.2400014
 106.3700008  84.1400051  19.2000008 104.6700096  83.0300045  18.5800004
 104.0800095  82.1300030  18.8700008 103.8900089  83.7900066  18.7500012
 105.0400066  83.0900002  17.0800006 105.4700089  84.0900040  16.8500006
 104.1700077  83.0200005  16.3900006 106.0200024  82.0300007  16.7700005
 106.9700050  82.4200058  16.9300008 105.7600021  81.1400032  17.2500002
 106.0800076  81.6700077  15.7900012 106.4400005  81.5600014  22.3500013
 107.3600006  80.9000015  21.8800020 106.4400005  81.8000031  23.6800003
 105.7100010  82.3400021  24.0900016 107.5100040  81.3199997  24.5900011
 108.4900093  81.3800049  24.1300011 107.2800064  82.2200012  25.8700013
 106.3000011  82.0600033  26.3600016 107.4900055  83.2900047  25.6600022
 108.2600021  81.8800068  27.0200014 107.8500080  81.4900017  28.0800009
 109.5400047  82.2900009  26.8600011 109.7200012  82.7800083  26.0100007
 110.2500057  82.0600033  27.5300002 107.3800087  79.7900057  24.9600005
 108.4000015  79.1800022  25.2200007 106.1900043  79.3000031  24.9200010
 105.3600025  79.8400021  24.8200011 105.8300018  77.8800058  24.9900007
 104.8600006  77.9000044  24.5300007 106.6800022  76.8700027  24.1700006
 107.6700020  76.8700027  24.6900010 106.7500019  77.2300053  23.1300020
 106.2800026  75.3100014  24.1600013 105.2400017  75.3600025  23.7700009
 106.1300087  74.8800039  25.1700020 107.3400021  74.5200014  23.4500003
 108.2700062  73.8800049  24.0100002 107.3100090  74.5600033  22.2100019
 105.6100082  77.3300028  26.3500023 106.4500046  77.3800039  27.2500014
 104.3900013  76.8200016  26.6600013 103.6500072  76.7600060  25.9900022
 104.0100002  76.2700033  27.9400015 103.0000019  75.9300041  27.7800012
 104.7400093  75.5000019  28.1300020 103.9300060  77.2600031  29.1500020
 103.9300060  78.4600019  29.0100002 103.9100075  76.6900015  30.2900004
 103.8000011  75.7100058  30.3700018 104.0300083  77.4400043  31.4800024
 104.6900082  78.2900047  31.3200021 102.7600002  78.1900024  31.9500017
 102.5000095  79.1300058  31.4200020 102.9400063  78.5700035  32.9800010
 101.5200043  77.3500013  31.9400024 100.7700062  77.6700020  32.7000022
 101.8700027  76.3200045  32.1800017 100.6600094  77.5300026  30.6900024
 101.1800003  77.3600054  29.7300005  99.9000072  76.7200041  30.8100009
  99.9100018  78.8900042  30.6900024  99.6700001  79.3100023  31.6900015
  98.9100075  78.7700033  30.2200007 100.6500053  80.0100040  30.0700021
 101.1600018  79.6500015  29.2400002 100.0600052  80.7900047  29.7300005
 101.2600040  80.5900002  30.6800008 104.6200085  76.6300058  32.6400018
 103.9900017  75.6700039  33.1300020 105.7700062  77.0000029  33.1000018
 106.1800003  77.6300049  32.4400020 106.4400005  76.5400028  34.3200016
 105.8200073  75.9900045  35.0100017 107.7200031  75.7000017  33.9100027
 108.2700062  75.4400015  34.8400021 108.3600044  76.2700033  33.2100010
 107.2300053  74.3900013  33.2400012 106.8500042  74.6300030  32.2300005
 106.4200020  73.8900042  33.8100004 108.4300041  73.3800030  33.0400014
 108.6400032  73.0100012  34.0700006 107.9600048  72.5300026  32.5200009
 109.7400093  73.7700033  32.3500013 110.5500031  73.0700016  32.6500010
 110.0000095  74.7900057  32.7200007 109.7000027  73.8600016  30.9200025
 110.6800079  73.7200022  30.6100011 109.1100025  73.1300020  30.4600024
 109.3300056  74.7500038  30.5500007 106.9100094  77.7800035  35.0900006
 106.5300083  78.0000019  36.2600017 107.7900028  78.5800028  34.4000006
 107.9300022  78.5600042  33.4200025 108.5800076  79.5500040  35.1700020
 108.1600094  79.6600056  36.1600018 110.1300049  79.2100048  35.2500010
 110.1600075  78.2300043  35.7700014 110.6400013  79.9700022  35.8900023
 110.8500099  78.8800049  33.9300013 111.0900021  77.7300024  33.6000013
 111.3600063  79.9000025  33.2500005 111.4200020  80.7999992  33.6900020
 111.9700050  79.7700024  32.4700022 108.4000015  80.8600044  34.5800018
 109.3000031  81.6499996  34.2800021 107.1400070  81.2800026  34.2800021
 106.4500046  80.6500053  34.6100020 106.6700077  82.5100040  33.7700009
 107.1700096  82.6700020  32.8300023 105.1600075  82.4900055  33.4300017
 104.9000072  83.5000038  33.0500007 104.6700096  82.3200035  34.4200015
 104.6000004  81.3899994  32.4900007 104.4400024  80.4200077  33.0100012
 105.3600025  81.1200047  31.7200017 103.4200096  81.8800068  31.5800023
 102.2900009  81.4100075  31.8600011 103.6400032  82.7200031  30.6400013
 107.0600033  83.7300014  34.6300006 107.0200062  83.7300014  35.8600020
 107.4900055  84.8300076  33.9100027 107.4100018  84.9100018  32.9200006
 107.9200077  86.1500072  34.3700027 107.9500008  86.1100006  35.4500008
 109.2300034  86.6400051  33.8200021 109.3600082  86.6900063  32.7200007
 109.5500088  88.0300045  34.4500017 110.5900097  88.3400059  34.2000008
 108.8700008  88.7800026  34.0000010 109.3900013  87.9100037  35.5400014
 110.2600098  85.7000065  34.3900013 110.1900005  84.6600056  34.0000010
 111.3000011  86.0200024  34.1600013 110.2200031  85.5900002  35.5000019
 106.8300056  87.1100044  33.9300013 106.2200069  86.9400024  32.8800011
 106.4000034  88.0900002  34.8300028 106.8200016  88.2900047  35.7200027
 105.2000046  88.7900066  34.6200013 104.7400093  88.6800003  33.6600018
 104.2200089  88.3300018  35.7300019 103.3600044  89.0200043  35.6100011
 104.6900082  88.4600067  36.7300010 103.5700035  87.0100021  35.4300022
 103.1100082  86.7500019  34.1600013 103.2300091  87.4900055  33.3800006
 102.4400043  85.5500031  33.8900018 102.1200085  85.2900028  32.8900027
 102.2100067  84.5500088  34.9000025 101.6700077  83.6400032  34.6900010
 103.5600090  85.9899998  36.3900018 104.1000080  86.1800003  37.3100019
 102.7800083  84.8200035  36.1100006 102.7600002  84.0900040  36.9000006
 105.5000019  90.2800083  34.7300005 106.4000034  90.8300018  35.3400016
 104.8300076  91.0000038  33.8900018 104.1600037  90.5300045  33.3200026
 105.1400089  92.4400043  33.7500024 105.4100037  92.8600025  34.7100019
 106.3800049  92.7800083  32.9600024 107.2400093  92.4900055  33.6000013
 106.4100075  93.8800049  32.8400016 106.4800072  92.0300007  31.6100025
 105.6700039  92.1600056  30.6800008 107.5200081  91.2200069  31.4300013
 108.2900047  91.1500072  32.0600009 107.6800060  90.8700085  30.5000019
 103.8400078  93.1900024  33.1800008 102.9000092  92.4000072  32.9800010
 103.7900066  94.4700050  32.7800012 104.5600033  95.0800037  32.9400015
 102.6500034  95.1100063  32.1400023 101.7200089  94.8400021  32.6100016
 102.8600025  96.6200066  32.0500016 102.0400047  97.0000076  31.4100003
 103.8700008  96.8600082  31.6600013 102.6700020  97.2200012  33.4600019
 102.3000050  96.5400028  34.3800020 103.0100060  98.5400009  33.5900021
 103.5900021  98.9600086  32.8800011 103.0100060  98.8900089  34.5300007
 102.2800064  94.4700050  30.7900023 101.1500072  94.3400002  30.4300022
 103.3000088  94.0400028  30.0200009 104.2400074  93.9600086  30.3500009
 103.1500053  93.6200047  28.6700010 102.4000072  94.2100048  28.1800008
 104.5200062  93.7300014  27.8900003 105.2700043  93.0400085  28.3300018
 105.0000095  94.6900082  28.1600022 104.4900036  93.6200047  26.3200021
 103.5900021  94.3800068  25.5400014 102.8700066  95.0400066  26.0000014
 103.5400009  94.2100048  24.1800022 102.8100014  94.8600006  23.7100005
 104.3400097  93.3100033  23.5200000 104.1900063  93.0100060  22.1700001
 105.0500011  92.6700020  21.8800020 105.3100014  92.6400089  25.5900002
 106.0500050  92.1900082  26.2300014 105.2700043  92.5699997  24.2200017
 105.9900093  91.9300079  23.7200022 102.5600052  92.2399998  28.5500002
 102.1100044  91.7800045  27.4900007 102.4900055  91.4900017  29.7100019
 102.8800011  91.7700005  30.5800009 101.7700005  90.1900005  29.8600006
 102.1100044  89.4400024  29.1600013 101.8500042  89.7100067  31.3000011
 101.5300083  90.5600071  31.9500017 103.1400013  89.2800045  31.6200018
 103.4900093  88.6100006  31.0200024 100.9000015  88.5200024  31.7100024
  99.8500061  88.8199997  31.5300012 101.1000061  87.6000023  31.1200023
 101.0700035  88.2500076  32.7700019 100.3600025  90.3600025  29.4300008
  99.8200035  89.6200085  28.6700010  99.6600056  91.4000034  29.8700023
 100.1700020  92.0000076  30.4700017  98.3400059  91.6900063  29.3700004
  97.8600025  90.7500076  29.1400003  97.6400089  92.5000000  30.4900026
  96.6600037  92.8900051  30.1400018  98.2600021  93.4100056  30.6500006
  97.4300003  91.7400074  31.7200017  96.3300037  90.8700085  31.7900014
  95.5600071  90.9500027  31.0300016  96.0200024  90.2200031  32.9800010
  95.1700020  89.5500088  32.9500008  96.8800068  90.2900028  34.1000009
  96.5100002  89.7900009  34.9800014  98.2900047  91.7500019  32.8400016
  99.1200066  92.4300003  32.9000020  97.9900074  91.0800076  34.0800023
  98.6100006  91.1200047  34.9600005  98.3000088  92.5800037  28.0900002
  98.6600018  93.7900066  28.1800008  98.0500031  91.9500065  26.8900013
  97.8299999  90.9800053  26.8400002  98.1800079  92.6900005  25.6800008
  97.9900074  93.7300014  25.9000015  99.6100044  92.7600002  25.2000022
 100.2600002  93.2200050  25.9800005  99.7800064  93.4600067  24.3600011
 100.3100014  91.3700008  25.1100016  99.6400070  90.7700062  24.4600010
 100.3100014  90.9200001  26.1300015 101.6600037  91.3900089  24.4200015
 102.4900055  91.7900085  25.0400019 101.8200016  92.0600033  23.5500002
 102.0700073  89.9500084  24.0800023 101.8600082  89.6400070  23.1500006
 102.5900078  89.1000080  24.9600005 102.9000092  89.3800068  26.2500024
 102.7600002  90.3100014  26.5900016 103.6500072  88.8800049  26.6900015
 102.8700066  87.8999996  24.5700002 102.9000092  87.8200054  23.5700011
 103.4400082  87.2900009  25.1200008  97.3300076  92.1900082  24.5500016
  97.3100090  92.8500080  23.5100007  96.6500092  91.0300064  24.6600008
  96.5400028  90.5800056  25.5400014  95.8300018  90.5300045  23.5500002
  96.2200069  90.4200077  22.5500011  95.5500031  89.5200062  23.8100004
  94.5600033  91.2900066  23.3900023  93.5600090  91.1000061  24.0900016
  94.4800091  92.1000004  22.3000002  95.2700043  92.2399998  21.7100000
  93.2500076  92.8400040  21.8500018  92.6700020  93.2300091  22.6700020
  93.7500000  94.0100002  20.9600019  92.8400040  94.4300079  20.4900002
  94.4000053  93.5900021  20.1600003  94.6500015  95.0300026  21.7000008
  95.4500008  94.3500042  22.0500016  95.1600075  96.0900021  20.7000017
  95.7600021  95.5900002  19.9100006  94.2700005  96.5000057  20.1900005
  95.7400036  96.9000053  21.2000012  93.8800049  95.7900047  22.8299999
  94.5900059  96.4400005  23.3900023  93.1599998  96.4300060  22.2800016
  93.3500004  95.1100063  23.5300016  92.3100090  92.1200085  20.9300017
  91.1000061  92.4200058  20.9800005  92.7900028  91.2800026  19.9500012
  93.7700081  91.0700035  19.9700010  91.9000053  90.6900024  18.9500010
  90.9500027  90.5400085  19.4200015  91.8600082  91.4300060  18.1600010
  92.4100018  89.4200039  18.3400011  93.6000061  89.0799999  18.2900012
  91.4500046  88.7200069  17.7000010  90.4800034  88.9600086  17.7700007
  91.8300056  87.4600029  17.0800006  92.8200054  87.5900078  16.6700006
  91.7000008  86.2200069  18.0000007  90.6800079  85.8800030  18.2700014
  92.2000027  86.4500046  18.9600015  92.3600006  85.0200081  17.3400009
  93.2400036  85.1900005  16.5200007  91.9000053  83.8000011  17.7200007
  91.2400055  83.8000011  18.4700012  92.2100067  82.9600048  17.2700012
  90.9800053  87.4700069  15.8200002  89.8000050  87.2800064  15.8000004
  91.5600014  87.8400040  14.6300006  92.4900055  88.2100010  14.7100008
  91.0300064  87.6900005  13.2500005  91.8200016  87.9800034  12.5700009
  90.5300045  86.2500000  13.0700004  90.1200008  86.0400009  12.0600009
  89.6200085  86.1000061  13.6900008  91.5300083  85.1399994  13.3700001
  92.1400070  85.4800034  14.2400002  92.2500038  85.0699997  12.5300002
  90.7900047  83.8500023  13.8200009  91.4900017  83.3100033  14.4900012
  89.8900032  84.0900040  14.4300008  90.3600025  83.0500031  12.6700008
  91.2100029  82.6200008  12.1000004  89.7100067  83.6300087  11.9800007
  89.6700001  81.7800045  13.0300009  89.4200039  81.2600040  12.1700001
  89.9900055  81.1000061  13.7400007  88.7700081  82.1800041  13.3700001
  89.8300076  88.6300087  12.9300010  89.0300083  88.3600044  12.0800006
  89.7200012  89.8400021  13.6000001  90.3000069  90.1600075  14.3500006
  88.6400032  90.8000088  13.3300006  89.1300011  91.7300034  13.0800009
  87.9900074  90.4400063  12.5500011  87.8600025  90.8700085  14.6100008
  87.2100067  91.8900013  14.8500001  87.8600025  89.8500061  15.4700005
  88.5200024  89.1400051  15.2600002  86.8700027  89.7300053  16.6000009
  86.1600018  90.5400085  16.5700006  85.8900070  88.5500050  16.4900005
  85.3000069  88.5200024  17.4300003  84.9500084  88.7600040  15.3400004
  85.4500008  88.8199997  14.3500006  84.0799999  88.0700016  15.3000009
  84.5600033  89.7900009  15.4900002  86.6800022  87.2200012  16.3600004
  87.1300030  86.9300079  17.3300004  85.8600044  86.4800072  16.2200010
  87.4000072  87.1700001  15.5100012  87.5600052  89.7300053  17.9900014
  88.7500000  89.4000053  18.1300008  86.9099998  90.1900005  19.0800011
  86.0200024  90.6300068  19.0300012  87.4300003  89.9200058  20.4000020
  88.2200050  90.6400013  20.5300021  86.3800049  90.2600002  21.5200019
  86.8100071  90.0200081  22.5200009  85.3400040  89.9000072  21.3700008
  86.1200047  91.7600060  21.7500019  85.7900047  92.1400070  20.7600021
  85.0500011  91.9000053  22.7800012  84.7000027  92.9300022  22.9700017
  84.1800022  91.3600063  22.3400021  85.4100037  91.4000034  23.7000012
  87.3400021  92.5000000  22.1399999  87.9400063  91.9200039  22.8600001
  87.9700089  92.8000069  21.2700009  87.1500015  93.4800053  22.6300001
  87.8000069  88.4800053  20.7000017  87.0800018  87.5300026  20.4100013
  88.9200020  88.2900047  21.4200020  89.8100090  89.4099998  21.9500017
  89.9800014  90.1200008  21.1100006  89.2300034  89.9400043  22.7400017
  89.5600033  87.0100021  21.7900014  89.6700001  86.4100075  20.8899999
  90.8400059  87.3700047  22.5100017  91.6900063  86.7000008  22.2400022
  90.7600021  87.1200085  23.5800004  91.1400032  88.8100052  22.3400021
  91.8900013  88.8400078  21.5200019  91.6499996  89.3100071  23.1900001
  88.6000061  86.2000084  22.7500010  88.4899998  85.0200081  22.6900005
  87.9200077  86.9300079  23.6400008  88.0200005  87.9200077  23.6400008
  87.2600079  86.3400078  24.7800016  87.6200008  85.3299999  24.9300003
  87.6200008  86.9400024  26.1300015  88.7100029  86.8000031  26.2700009
  87.0700073  86.4800072  26.9800019  87.3300076  88.4500027  26.2400007
  86.1600018  89.1400051  26.3300014  85.2200031  88.6800003  26.5900016
  86.4100075  90.5000019  26.1800003  85.8200073  91.2600040  26.3700008
  87.7700043  90.7400036  26.0000014  88.3500004  89.4400024  26.0000014
  89.7300053  89.3900013  25.8800006  90.1700020  88.4100056  25.8600020
  90.4300022  90.5700016  25.6200004  91.4900017  90.3700066  25.5200005
  88.4600067  91.8800068  25.7300019  87.8600025  92.7800083  25.7300019
  89.8400021  91.8100071  25.5800009  90.3900051  92.6400089  25.1600003
  85.7000065  86.2000084  24.5800018  84.9100018  85.7600021  25.4000020
  85.2500057  86.6200066  23.4000015  85.9400082  86.8600082  22.7200007
  83.8800049  86.8000031  22.9900002  83.8800049  87.1800041  21.9800019
  83.0100060  85.4600048  23.0400014  81.9700050  85.8000088  22.8400016
  83.2000065  85.0200081  24.0400004  83.2500076  84.4799995  21.8500018
  83.3100033  84.9900055  20.8600020  82.3099995  83.9000034  21.7500019
  84.4600010  83.6000061  21.9900012  84.4600010  82.8400040  21.1800003
  85.3200054  84.2600060  21.7400002  84.6400070  82.8400040  23.3200002
  84.3600082  83.4600067  24.2000008  85.6599998  82.4400043  23.4700012
  83.6700058  81.7199993  23.2900000  83.5599995  81.3199997  24.2500019
  82.7800083  82.0400047  22.8600001  84.0600014  81.0800076  22.5700021
  83.1400013  87.8600025  23.7700009  82.8700066  88.9500046  23.2800007
  82.7800083  87.5400066  25.0400019  83.1200027  86.7200089  25.5000019
  81.9000053  88.3400059  25.8600020  81.6700077  89.2300034  25.3000021
  80.6300068  87.5000000  26.0000014  80.7999992  86.5400028  26.5400004
  80.2800083  87.1800041  24.9900007  79.2500019  88.4100056  26.9000006
  79.3900061  87.8600025  28.1000018  82.6000023  88.6000061  27.1900010
  82.7500057  87.6600075  27.9700017  82.8000069  89.9200058  27.5300002
  82.5600052  90.7100010  26.9600010  82.9600048  90.2800083  28.9200020
  82.4900055  89.4500065  29.4300008  84.4400024  90.6200027  29.3700004
  84.8000050  91.5400028  28.8500023  85.1600075  89.8800087  28.9600015
  84.6500015  90.8400059  30.8800006  84.0500069  91.7200089  31.5200019
  85.3299999  89.8700047  31.5000010  85.7000065  89.1400051  30.9300017
  85.3999996  89.8400021  32.4900007  81.9799995  91.4300060  29.1500020
  81.9000053  92.3700047  28.3700013  81.0200024  91.1500072  30.0600004
  81.0400009  90.3900051  30.7000017  79.8500061  92.0400047  30.2300024
  79.6900034  92.4100018  29.2300010  78.6600018  91.3000011  30.8300018
  78.9300060  90.8300018  31.8000007  78.3700037  90.4500008  30.1700020
  77.4900055  92.1000004  30.8900023  77.5000048  92.6100063  31.7000008
  80.2200031  93.2700062  30.9600019  79.7600031  94.2900085  30.5600023
  81.0400009  93.1200027  32.0100021  81.2800026  92.1800041  32.2200012
  81.4700031  94.2200089  33.0000019  80.6000042  94.8000050  33.2800007
  82.2000027  93.6100006  34.1900015  83.1100082  93.0300045  33.9100027
  81.5600014  92.8299999  34.6500015  82.7200031  94.4300079  35.4000020
  83.5200024  95.1100063  35.0500011  81.5300083  95.3200054  35.8800006
  81.0500050  95.9000015  35.0600028  80.7700062  94.6700001  36.3700008
  81.9500065  96.0900021  36.5600014  83.1700039  93.5700035  36.4600015
  83.5200024  94.2800045  37.2300029  82.2600079  92.9800034  36.7300010
  83.9700031  92.8400040  36.2100029  82.3900032  95.1800060  32.3600006
  82.3099995  96.3500023  32.5600004  83.3900070  94.7000027  31.5000010
  83.5300064  93.7300014  31.3000011  84.2000008  95.4700089  30.6800008
  84.7700024  96.1400032  31.3000011  85.3200054  94.5300007  30.2000022
  84.9800014  93.6800003  29.5700026  85.8500004  94.0799999  31.0600019
  86.3500023  95.2900028  29.3000007  87.1200085  96.1000061  29.8200011
  86.4700031  94.9400043  28.0900002  83.4200001  96.2500000  29.6600008
  83.6200047  97.4400043  29.4300008  82.4100018  95.7800007  29.0900016
  82.2200012  94.8100090  29.1800022  81.3899994  96.4800072  28.3100009
  82.0400047  97.0900059  27.6900005  80.5600071  95.4400063  27.4100018
  80.0800037  94.8700047  28.2400012  81.1900043  94.6600056  26.9300008
  79.5300055  96.1100006  26.4600015  78.7800026  96.5700054  27.1300006
  78.9500046  95.3200054  25.9400010  80.2800083  97.1900082  25.1700020
  81.1800003  95.8400059  24.4700003  80.7100010  94.8700047  24.7400022
  81.1600018  95.9300041  23.3600020  82.2000027  95.9000015  24.8800015
  80.4600048  97.4700069  29.0100002  80.1300049  98.5900021  28.5600019
  80.0400066  97.1500015  30.2200007  80.0699997  96.2200069  30.5700016
  79.4400024  98.0400085  31.1000013  78.6200047  98.4900093  30.5700016
  78.8000059  97.3300076  32.3500013  79.5500040  96.7200089  32.9000020
  78.0400038  96.5900040  32.0300007  78.2100058  98.2800007  33.3900023
  77.6600027  99.1400051  32.9500008  79.0100050  98.8200092  33.9500022
  77.5400019  97.3500061  34.3900013  76.6900015  96.9500065  33.8100004
  78.2800055  96.5700054  34.6800017  77.1400023  98.1000042  35.6400013
  76.4200020  98.8300037  35.2000022  77.9700041  98.5800076  36.2000012
  76.3400030  97.3700047  36.6000009  76.7500019  96.4200020  36.6900015
  76.1300039  97.8100014  37.5200009  75.3900051  97.2300053  36.1900020
  80.2600002  99.2600060  31.4800024  79.8600054 100.4300022  31.3100004
  81.5600014  99.1000080  31.9300008  81.8500042  98.1400013  31.9700027
  82.6200008 100.0200081  32.1700025  82.3799992 100.6700039  33.0000019
  83.9300060  99.3700027  32.6300025  84.2300034  98.6400032  31.8400025
  83.8600063  98.7500000  33.5400009  85.0400066 100.3200054  33.0500007
  85.2100086 100.7000065  34.4000006  84.4400024 100.4100037  35.1000023
  86.1100006 101.7100048  34.8600006  86.1300087 102.0600033  35.8800006
  87.1700001 101.9500065  33.9800024  88.3200073 102.5800037  34.3800020
  89.0500069 102.2900009  33.8200021  86.0900021 100.6700039  32.2100019
  86.0000038 100.2900028  31.2000012  87.1400070 101.5100002  32.6600027
  87.9600048 101.6900063  31.9800019  82.8900051 100.9300041  31.0500026
  82.9200077 102.1700096  31.0700011  83.0500031 100.2900028  29.8900008
  82.9699993  99.3000031  29.8500013  83.2999992 100.9100056  28.6500025
  84.1700077 101.5400028  28.7600017  83.6800003  99.9400043  27.5700021
  82.9100037  99.1600037  27.4300003  84.6100044  99.3900013  27.7900004
  83.6700058 100.5600071  26.1900020  84.9300003 100.9200001  25.5800009
  85.8800030 100.6700039  26.0400009  84.9100018 101.4600086  24.3000007
  85.8000088 101.9100094  23.8800001  83.6900043 101.5800095  23.5700011
  83.7200069 102.0000076  22.5800014  82.4300003 100.7500076  25.4300022
  81.5200043 100.4000092  25.9000015  82.5600052 101.1500072  24.0800023
  81.6300011 101.2000084  23.5300016  82.1700001 101.8600082  28.2200003
  82.4300003 103.0500031  27.9300022  80.9400082 101.3700008  28.3500004
  80.8300018 100.3900051  28.5100007  79.7600031 102.3100090  28.1600022
  79.8800039 102.7300072  27.1700025  78.4200048 101.5000057  28.4000015
  78.3600044 101.0300064  29.4000006  78.5000038 100.6200027  27.7300024
  76.9200039 102.4600029  28.1500006  76.4700031 102.4600029  29.4000006
  79.8300028 103.4300041  29.1600013  79.5800018 104.5900059  28.7900019
  80.0100040 103.1000042  30.4300022  80.0400066 102.1800041  30.8100009
  79.8700047 104.0600014  31.4700007  78.8500023 104.4000053  31.5700006
  80.0200081 103.3100033  32.8200006  81.0300064 102.8800011  32.9500008
  79.9900055 103.9200020  33.7500024  79.3400049 102.4300003  32.8900027
  80.9300041 105.1500034  31.4300013  80.5600071 106.2700081  31.5600014
  82.2100067 104.8300076  31.2300014  82.4500084 103.8700008  31.1500025
  83.3400059 105.7300091  30.8900023  83.2299995 106.4500046  31.6900015
  84.7800064 105.0600052  30.8700013  84.7000027 104.2900085  30.0700021
  85.7100010 106.1600018  30.3300023  85.6500053 106.3000011  29.2300010
  85.6000042 107.1300030  30.8600020  86.7700005 105.8900070  30.5300021
  85.2200031 104.5800018  32.2700024  85.1300049 105.4300022  32.9800010
  84.5200062 103.8100052  32.6700020  86.2800026 104.2300034  32.3100019
  83.0900002 106.4700031  29.6300006  83.3600044 107.6700020  29.6300006
  82.6399994 105.8400059  28.4900022  82.5200081 104.8500061  28.3900023
  82.5000000 106.5400028  27.3000002  83.3200073 107.2400093  27.2500014
  82.7600002 105.7200050  26.0000014  82.7600002 106.4100075  25.1300001
  81.8700027 104.6600056  25.7900023  81.9200039 104.0500069  26.5200019
  84.2000008 105.1500034  26.0200024  84.2600060 104.3400097  25.2600002
  84.9600029 105.9200096  25.7400012  84.4500065 104.7800064  27.0300007
  81.2500000 107.4400043  27.1100020  81.2200069 108.2100010  26.1800003
  80.2800083 107.3200035  28.0100012  80.1700020 106.4800072  28.5500002
  79.0800047 108.0700016  27.9000020  79.0300035 108.4600067  26.9000006
  77.8600025 107.1500015  28.1400013  77.7500057 106.8900013  29.2100024
  77.8900051 105.9400082  27.4100018  78.5800028 105.4400063  27.8400016
  76.5700054 107.8100014  27.7000022  75.6100035 107.2700024  27.8500009
  76.4200020 108.8200092  28.1600022  76.7500019 108.0400085  26.6300011
  79.1000032 109.2200089  28.9500022  78.4600019 110.2500057  28.7300014
  79.9200058 109.0300083  30.0300026  80.5300045 108.2700062  30.2200007
  80.0100040 109.9100018  31.1500025  79.0000057 109.9800014  31.5200019
  80.7800007 109.3200016  32.3000026  81.8400002 109.2400074  31.9900012
  80.3600025 108.3100033  32.5300026  80.7700062 110.1300049  33.5300016
  79.6500015 110.1200008  34.3200016  78.8300037 109.4300079  34.1900015
  79.4800043 111.0500050  35.3600025  78.6000061 111.2100029  35.9600019
  80.4400063 112.0200062  35.6600022  80.2900028 113.0300045  36.5800023
  79.4400024 113.4300041  36.3700008  81.7600060 111.0600090  33.8400006
  82.5800037 111.2500095  33.1700015  81.6400051 111.9800091  34.9100018
  82.3600006 112.7500057  35.1200008  80.3600025 111.3500023  30.8500004
  81.4900017 111.6700077  30.4200006  79.5000029 112.3300076  31.0200024
  78.5800028 112.1100044  31.3500023  79.8000050 113.7100029  30.8400011
  80.8700085 113.8300037  30.8600020  79.1100025 114.3900013  29.6500015
  79.5900059 115.3800011  29.4900012  79.3400049 113.7700081  28.2400012
  79.0100050 112.7100086  28.2300019  78.7400055 114.2000008  27.4100018
  80.3999996 113.8000011  27.9100013  77.5900030 114.4900036  29.7600007
  77.3600054 115.1000023  30.6600022  77.1400023 114.8700047  28.8200021
  77.1300030 113.4900093  29.9200010  79.4500017 114.3500042  32.1900010
  78.6500025 113.8200092  32.9100013  80.0900078 115.4800034  32.4000025
  80.8300018 115.8500099  31.8400025  79.8600054 116.2700081  33.5700011
  78.9400053 115.9900093  34.0700006  81.0300064 116.1800098  34.5600009
  82.0000076 116.6100025  34.2300010  81.2800026 115.1100063  34.7300005
  80.7100010 116.8700027  35.9200025  79.6700048 117.4300098  36.0800028
  81.6100025 116.6400051  36.9300008  82.5000000 116.2100029  36.7900014
  81.2900066 116.9100094  37.8400016  79.6300030 117.7500057  33.1000018
  80.5600071 118.4400082  32.6900005  78.4200048 118.2800102  33.0600023
  77.7100039 117.7800083  33.5500026  78.1000042 119.5400047  32.3500013
  78.7200022 119.5100021  31.4700007  76.5700054 119.8700047  32.0200014
  76.5200043 120.9000015  31.6100025  75.9100056 119.7700024  32.9100013
  76.0600042 119.0500069  30.8200026  76.0200024 117.9500103  30.9100008
  76.9700050 119.0900040  30.1800013  74.9900055 119.6500015  29.9800014
  73.9300013 120.0200081  30.6200004  75.1200056 119.9800014  28.8000011
  78.7000036 120.6800079  33.0200005  79.2900038 121.5200043  32.3900008
  78.6600018 120.8200073  34.3700027  78.1300020 120.2100086  34.9500012
  79.2000055 121.9000053  35.1400018  78.8300037 122.8800011  34.8800015
  78.6300039 121.8500042  36.6200018  77.5600052 122.1300030  36.6500020
  79.2700052 122.4500084  37.3100019  78.6300039 120.5100060  37.1400023
  77.6900053 120.3600025  37.2000027  80.7299995 121.9700050  35.2200007
  81.2900066 123.0000019  35.5600023  81.5100002 120.9000015  34.8500013
  81.1400032 119.9800014  34.8300028  82.9400063 121.1200047  34.5400023
  83.3200073 121.8500042  35.2500010  83.7300014 119.8700047  34.9200010
  84.7600079 119.8800087  34.4800019  83.2200050 118.9600086  34.5200014
  83.8899994 119.5700073  36.3700008  82.8800011 119.4000053  36.8100023
  84.3600082 120.4300022  36.8900013  84.5600033 118.2200050  36.6100025
  83.9900017 117.4300098  36.0800028  85.5500031 118.2100010  36.0900021
  84.6600056 117.8900051  38.0800009  83.6500072 117.8300095  38.5500026
  85.2800083 118.6700058  38.5800028  85.3200054 116.5700054  38.1800008
  84.7000027 115.7500076  38.3300018  85.8200073 116.5100098  37.2700024
  86.0700035 116.6200066  38.9000010  83.3500004 121.5800095  33.1100011
  84.5600033 121.8400097  32.8700018  82.3600006 121.6400051  32.1800017
  81.4400005 121.2600040  32.2900009  82.7600002 121.9300079  30.7600021
  83.6100006 121.3100052  30.5300021  81.4900017 121.5500069  29.8400021
  80.5300045 122.0400047  30.1200008  81.4300060 120.4400063  29.9400020
  81.6800022 121.8100071  28.4100008  82.7600002 121.2600040  27.7800012
  83.4600067 120.6500053  28.3200002  82.9699993 121.5800095  26.4700007
  83.8199997 121.2600040  25.8800006  82.2100067 122.5000095  25.7500005
  82.5100040 122.7500057  24.4100022  83.4500027 122.6700020  24.2600012
  80.8700085 122.7900028  27.7500010  80.0600052 123.2500076  28.2900023
  81.0800076 123.1000042  26.4200020  80.4300022   0.1100000  25.8000016
  83.3200073 123.2900047  30.5200005  84.2800045 123.3800030  29.7500014
  82.8900051   0.7600001  31.3000011  82.1100044   0.5700000  31.8900013
  83.1700039   2.1700001  30.9900022  82.6700020   2.3700002  30.0500011
  82.6100063   3.0900002  32.1600008  82.9600048   4.1500002  32.1200013
  82.9900074   2.7300000  33.1400013  81.0500050   3.0600002  32.2200012
  80.7000065   3.9200002  32.8300023  80.6800079   2.1700001  32.7800012
  80.3800011   3.0400002  30.8900023  79.6900034   2.0800000  30.5700016
  80.5000019   4.0200001  30.1100016  84.7300053   2.4000001  30.9500003
  85.1700020   3.1500003  30.0500011  85.4200077   1.7400001  31.9300008
  84.9500084   1.2500000  32.6500010  86.9000053   1.6700001  31.9100022
  87.2100067   2.7000001  31.9200015  87.2600079   0.9100001  33.2000017
  86.7700005 123.5000038  33.1400013  86.8500042   1.4200000  34.1000009
  88.8500023   0.8100000  33.4900022  89.2800045   0.2300000  32.6500010
  89.1600037   0.3500000  34.4500017  89.4099998   2.2100002  33.6100006
  90.4800034   2.0500001  33.3500028  88.9700031   2.8600001  32.8300023
  89.1499996   2.7900001  35.0400019  89.9400043   2.5200000  35.7800007
  88.1100082   2.6300001  35.3900027  89.2100048   4.2400002  34.9200010
  90.0400066   4.4900003  34.3500018  88.4800053   4.6400002  34.3000007
  89.1200066   4.7400004  35.8300018  87.5500011   1.0000000  30.7000017
  88.4100056   1.5800001  30.0400019  87.0400047 123.3700085  30.2700019
  86.2100029 122.9500103  30.6200004  87.6100063 122.7000046  29.1000009
  88.6900043 122.6000023  29.1500020  86.8600082 121.3800049  28.8700008
  87.1500015 120.8100033  27.9600024  85.7900047 121.6400051  28.7400007
  87.0000076 120.4400063  30.0600004  86.6499996 120.8500099  31.0300016
  86.1100006 119.1900063  29.7600007  85.0699997 119.5400047  29.9300003
  86.2200069 118.8500023  28.7100005  86.3000011 118.4200096  30.5300021
  88.4400082 119.9700069  30.3600025  88.4899998 118.9400101  30.7700014
  89.0400028 120.0500011  29.4300008  88.8600063 120.8100033  30.9500003
  87.4000072 123.4700012  27.8100014  88.2400036   0.0100000  27.0100021
  86.1900043   0.4400000  27.7400017  85.4699993   0.0000000  28.2800007
  85.8100033   1.6100001  26.9300008  85.6200027   1.2000000  25.9400010
  84.3500042   2.0400001  27.1800017  84.2199993   2.2400001  28.2700014
  83.6500072   1.2300000  26.8900013  83.8400078   3.3200002  26.3900018
  84.3000031   3.2100001  25.3800011  84.3400002   4.1400003  26.9400024
  82.3400021   3.5800001  26.4400005  81.9400024   2.6900002  25.9200001
  82.0300007   3.4700000  27.5100017  81.9000053   4.8600003  25.8200002
  80.8300018   4.7700003  25.5400014  82.4800014   4.8600003  24.8700023
  82.2000027   6.1500001  26.5000010  81.6800022   6.1600006  27.4000025
  83.2299995   6.2000000  26.5700006  81.9400024   7.0100003  25.9700012
  86.8400002   2.7600002  26.7700005  87.5300026   2.8900000  25.8300018
  87.0300007   3.5700002  27.8800011  86.4000034   3.5100001  28.6600018
  88.0300045   4.6900001  27.9800010  87.6500034   5.3600001  27.2200012
  88.0000019   5.3900003  29.3400025  88.3500004   4.6200001  30.0600004
  86.9300079   5.5900002  29.5200014  88.8600063   6.5700001  29.3800020
  88.9400005   7.4700004  28.3600020  88.4000015   7.4500006  27.4300003
  89.5200062   8.7200004  28.4300017  89.4700050   9.5000005  27.6800013
  90.2000046   9.0200007  29.5800018  90.8800030  10.2600002  29.7900009
  91.2400055  10.1800001  30.6700015  89.5800018   6.8600005  30.5600023
  89.5700073   6.1000001  31.3300014  90.3299999   8.0800003  30.6700015
  90.8600044   8.3400005  31.5700006  89.4500065   4.2700002  27.5100017
  90.1100063   5.0000000  26.7400002  89.9500084   3.1200001  27.9600024
  89.4099998   2.6200002  28.6400008  91.2200069   2.5300002  27.6100016
  92.0200062   3.1800002  27.9300022  91.2800026   1.1200000  28.3600020
  90.4800034   0.4200000  28.0400014  91.2100029   1.2400001  29.4600010
  92.5500011   0.4500000  28.0500007  93.3900070   1.1700001  28.0500007
  92.6400089 123.5100079  27.0700002  92.8200054 122.8900051  29.0200019
  93.8300037 122.5200081  28.7400007  92.9800034 123.2300091  30.0600004
  91.9200039 121.7500019  28.8700008  92.0300007 121.2400055  27.8900003
  90.8400059 122.0100021  28.9100003  92.2500038 120.6600094  29.9100018
  93.2900047 120.6200027  29.8700023  92.0300007 120.9900093  30.8700013
  91.8500042 119.7400093  29.6300006  91.3800049   2.2900002  26.0700011
  92.4200058   2.6000002  25.4900002  90.3600025   1.7800000  25.3900003
  89.6000004   1.3900001  25.8900023  90.3500080   1.6800001  23.8900018
  91.2800026   1.2600000  23.5600019  89.2100048   0.7200000  23.6300015
  89.2300034   0.6600000  22.5200009  88.2500076   1.1200000  24.0100002
  89.3900013 122.8300095  24.1300011  89.6100044 122.7700043  25.2200007
  90.1000023 122.2600079  23.4900022  88.0500031 122.0600033  23.9600015
  87.8299999 121.7800045  22.9100013  87.1600056 122.5900078  24.3600011
  88.0600071 120.8600044  24.8000002  88.7000084 120.7900047  25.5600023
  87.0900059 119.9900055  24.9300003  86.0100079 119.9200058  24.2000008
  85.9300041 120.5800056  23.4500003  85.3200054 119.2000103  24.3200016
  87.1800041 119.1000080  25.8800006  87.8000069 119.2900085  26.6400003
  86.3899994 118.5100079  26.0300016  90.1100063   2.9100001  23.1600022
  90.6700039   3.1900001  22.0700002  89.2800045   3.7100002  23.7200022
  88.7600040   3.5200003  24.5500016  88.9300060   4.9900001  23.1500006
  88.7000084   4.9700001  22.0900011  87.6600075   5.5700004  23.8400006
  87.4900055   6.6400003  23.6000013  87.9300022   5.4900002  24.9100018
  86.1600018   4.5900002  23.6100006  85.6800079   5.2600002  22.5700021
  90.0500011   6.0000002  23.3100009  90.0800037   6.9700003  22.5700021
  90.9800053   5.7900006  24.2800021  90.8400059   5.1200002  25.0100017
  92.1800041   6.6000003  24.1900015  91.9200039   7.6400006  24.0200019
  92.8800011   6.5900004  25.5000019  93.9300060   6.9200003  25.3500009
  92.9200077   5.5700004  25.9400010  92.2600079   7.4600005  26.6000009
  91.2400055   7.1400005  26.9000006  92.1800041   8.4200007  26.0400009
  93.2000065   7.6500005  27.8800011  94.2400074   7.9600006  27.6500010
  92.8100014   8.5200006  28.4700012  93.0700016   6.4700001  28.8800025
  93.4500027   5.5500001  28.4000015  92.0100021   6.4200002  29.2300010
  93.8700008   6.8400002  30.0400019  93.4800053   7.6400006  30.5700016
  94.0700054   6.0000002  30.6200004  94.7800064   7.2300005  29.7200012
  93.1700039   6.2000000  23.1000018  93.8700008   6.9500005  22.4700022
  93.2900047   4.9500003  22.8800011  92.7000046   4.3200001  23.3900023
  94.0799999   4.3300003  21.9000006  95.0500011   4.7700003  22.0600009
  94.1000080   2.8500003  22.2600007  93.1400013   2.3600002  22.0000005
  94.3000031   2.7400002  23.3500004  95.2000046   2.0200001  21.5500021
  96.5900040   2.1400002  21.7800021  96.9900036   2.9200003  22.4200010
  97.4600029   1.4100000  20.9700012  98.5300064   1.5300001  20.9900022
  97.0100021   0.3200000  20.1500010  97.8900051 123.2400036  19.2500007
  97.3200035 122.7800083  18.6400008  94.7900009   0.9600000  20.7600021
  93.7200069   0.8500000  20.6700015  95.6500053   0.1600000  20.0400019
  95.2200031 123.0800056  19.3000007  93.6200047   4.5600003  20.4700017
  94.5000076   4.6600002  19.6300006  92.3000050   4.7600001  20.1900005
  91.6200066   4.6700001  20.9200001  91.7500019   4.9600002  18.8600004
  92.4400043   5.0200003  18.0300009  90.7000065   3.7800002  18.6700010
  90.1600075   3.9100003  17.7100003  89.9600029   3.8900003  19.4800007
  91.2900066   2.3500001  18.5000014  91.8500042   2.1300001  19.4300008
  90.2200031   1.3100001  18.3100009  89.4300079   1.3200000  19.1000009
  89.6300030   1.4400001  17.3800004  90.7600021   0.3400000  18.2600009
  92.2900009   2.2900002  17.3800004  92.7000046   1.2600000  17.3800004
  91.8200016   2.4700001  16.3900006  93.1400013   3.0000001  17.5300014
  90.9000015   6.2600005  18.6400008  90.5500031   6.4700001  17.4800003
  90.6300068   7.1100003  19.6700013  90.7900047   6.7800003  20.6000018
  89.7000027   8.3000004  19.6400011  89.7000027   8.6200005  20.6700015
  90.4100037   9.4300002  18.8800013  89.7700024  10.3299999  18.9500010
  90.5300045   9.0700006  17.8400004  91.8200016   9.7700006  19.3200004
  92.0000076  10.2800000  20.3900003  92.9000092   9.4000006  18.6600006
  92.7700043   8.9700001  17.7700007  93.8300037   9.6800005  18.9100003
  88.3200073   7.9100001  19.3000007  87.9200077   8.1600004  18.1400013
  87.5600052   7.3100001  20.2700019  87.8400040   7.4100006  21.2200022
  86.2800026   6.6900003  19.9600005  85.8200073   7.1400005  19.0900004
  86.3700008   5.1700002  19.7000015  85.3999996   4.6400002  19.7600007
  87.0900059   4.6400002  20.3500009  86.9799995   4.8300001  18.3700013
  88.0200005   5.2000004  18.2900012  86.4000034   5.5100000  17.7200007
  86.7000008   3.4300002  17.8700006  87.3099995   3.3500001  16.9400012
  87.1700001   2.6700002  18.5300004  85.2800083   3.1800002  17.6800013
  84.8400021   4.0000001  17.0800006  84.6600056   3.2800001  18.6000013
  84.9900055   1.8800001  17.1000004  85.8300018   1.2700000  17.0700014
  84.3300056   1.3300000  17.6800013  84.8000050   1.8900001  16.0800004
  85.3100014   6.8700004  21.0700011  85.6400013   7.3800004  22.1300006
  84.0200043   6.5300006  20.8700013  83.7200069   6.0100001  20.0600004
  82.8500080   6.7500001  21.7700005  83.2200050   7.0100003  22.7500010
  81.9700050   7.8900003  21.2100005  81.2100029   8.0700004  22.0000005
  81.4200020   7.4700004  20.3299999  82.6100063   9.2400002  20.9300017
  81.7400074   9.9200004  20.7600021  83.2700062   9.1800004  20.0400019
  83.4700012   9.7700006  21.9900012  84.4200039  10.5700004  21.7500019
  83.0100060   9.6400005  23.1600022  82.0300007   5.4700005  22.0200014
  82.5500011   4.4100001  22.2700000  80.6800079   5.4700005  21.9200015
  80.2600002   6.3000005  21.5600014  79.6100044   4.6000001  22.4900007
  80.0300026   4.3000001  23.4400010  78.3000040   5.3500003  22.8400016
  77.5600052   4.6100003  23.2200003  77.7900028   6.0500002  21.7300010
  76.8300056   6.0200006  21.8300009  78.6000061   6.3600004  23.9300013
  77.6500034   6.8900001  24.1900015  78.9900017   5.9500003  24.8900008
  79.4400024   7.0100003  23.6200023  79.1800022   3.2300001  21.8900013
  79.3800020   2.9200003  20.7000017  78.4900045   2.3200001  22.6800013
  78.3000040   2.5300002  23.6400008  77.8500032   1.1400001  22.1399999
  78.5500050   0.7100000  21.4300013  76.5500021   1.5700001  21.4700007
  76.9800043   2.3200001  20.7700014  76.1700058   0.7600001  20.8100009
  75.4500055   2.1900001  22.4000001  75.9300041   3.0500001  22.9200006
  75.0700045   1.5200001  23.2000017  74.2500019   2.6000002  21.4800000
  73.6100054   3.3000001  22.0500016  74.6700048   3.0500001  20.5500007
  73.2500029   1.4500001  21.1500001  72.7000046   1.0700001  22.0300007
  73.7600040   0.5600000  20.7300019  72.4000025   1.8300001  20.0600004
  71.7900038   1.0100000  19.8800004  71.7400026   2.5700000  20.3800011
  72.8400040   2.2500001  19.2200005  77.6100016   0.1600000  23.2800007
  78.2400036   0.2400000  24.3500018  76.6700029 122.8100014  23.0400014
  76.3300037 122.7900028  22.1000004  76.2400055 121.7200089  23.9100003
  76.0900021 122.1400070  24.9000001  74.8600054 121.1500072  23.3000016
  74.9800014 120.1800060  22.7700019  74.4900036 121.9400024  22.6200008
  73.7400055 121.0000038  24.3800020  72.8200054 120.6000042  23.8900018
  73.5900021 122.0300102  24.7800016  73.9400053 120.0800037  25.5200005
  74.2400026 119.0400028  25.2700019  74.8000050 120.3600025  26.1700010
  72.7100039 119.9400043  26.4400005  71.8000031 119.5700073  25.9100008
  72.5200033 120.9400082  26.8900013  72.9100037 119.0000057  27.5500011
  72.1100044 119.1100025  28.2100010  73.1700039 118.0600071  27.2000003
  73.7500048 119.3100071  28.0800009  77.2500038 120.5300045  24.0700006
  78.4000015 120.5200100  23.5100007  76.9600058 119.5100021  24.8600006
  76.1600018 119.5700073  25.4500008  77.9400015 118.5800076  25.3100014
  78.8100052 118.7400055  24.6900010  78.0400038 118.8000011  26.8500018
  77.3700047 118.1000042  27.3900008  77.9000044 119.8600101  27.1700025
  79.3800020 118.3400059  27.4000025  79.4300032 117.2600079  27.1300006
  80.5400085 119.1600037  26.7300010  81.3899994 119.1500092  27.4400020
  80.7200050 118.6700058  25.7400012  80.2600002 120.2200031  26.5900016
  79.4900036 118.4600067  28.9200020  80.5000019 118.1800079  29.2600012
  79.3600035 119.5100021  29.2800021  78.7600040 117.7400017  29.3600011
  77.6400042 117.0500088  25.1100016  76.6200018 116.5000057  25.5300021
  78.5900021 116.3700008  24.4700003  79.4200039 116.8100071  24.1300011
  78.5700035 114.9000072  24.4600010  78.1200027 114.5300007  25.3700018
  77.8600025 114.3500042  23.2000017  78.6200047 114.1700077  22.4000001
  77.1600056 115.1500034  22.8900003  77.1500015 113.0500031  23.4800005
  76.6600037 113.0100060  24.4800019  77.8500032 112.1900082  23.4200001
  76.0900021 112.7700043  22.3600006  76.4700031 112.7000046  21.1700010
  74.8000050 112.6900101  22.8200006  74.6100044 112.9600048  23.7600017
  74.1400051 112.2600079  22.2000003  80.0500011 114.4100094  24.4900012
  80.9899998 115.2400017  24.3700004  80.3800011 113.1100082  24.7600007
  79.6900034 112.4700069  25.0900006  81.6800022 112.4900055  24.4700003
  82.4600029 113.2400036  24.5100021  81.9099998 111.1800098  25.3100014
  82.8500080 110.6200027  25.0900006  80.9600067 110.6100082  25.2200007
  82.1700001 111.7200089  26.7400002  82.4100018 112.9100037  27.0000005
  81.9900036 110.8400059  27.7500010  81.4300060 110.0400066  27.5500011
  82.1800041 111.1200047  28.6900020  81.7900085 112.1100044  23.0300021
  80.7900047 111.9900036  22.3500013  83.0400085 112.0600033  22.5500011
  83.7300014 112.4200058  23.1800008  83.4700012 111.5700054  21.3000011
  82.6200008 111.2200069  20.7300019  84.3200016 112.6200008  20.5800009
  85.1900005 112.8000069  21.2500000  84.9000072 112.1800041  19.2300010
  85.3299999 111.1600018  19.2900014  84.0900040 112.2300053  18.4800005
  85.6400013 112.8700066  18.7700009  83.5900021 113.9800072  20.4600000
  82.7900028 114.0700054  19.7000015  83.2000065 114.3500042  21.4300013
  84.3100071 114.7600079  20.1200008  84.3300056 110.3600025  21.4300013
  85.2200031 110.2400017  22.3100019  84.0100002 109.4100094  20.6000018
  83.3400059 109.5600033  19.8800004  84.7100067 108.1100082  20.5100012
  85.4600048 108.1000042  21.2900019  83.7700081 106.9600010  20.9000015
  84.2600060 105.9700012  20.8500004  83.5300064 107.1300030  22.4300003
  82.7600002 106.4100075  22.7900004  84.4400024 106.9100094  23.0300021
  83.1500053 108.1000042  22.8200006  82.5200081 106.8900013  20.0300002
  81.8600082 107.7300072  20.3200006  82.8299999 106.9200039  18.9700007
  81.9900036 105.9300041  20.1999998  85.3999996 107.9700089  19.1200006
  84.8400021 108.2600021  18.0800009  86.6700077 107.5500011  19.1300011
  87.1400070 107.2300053  19.9500012  87.5400066 107.5000095  17.9900014
  87.0800018 107.8300095  17.0700014  88.7700081 108.3800030  18.2300007
  89.1300011 108.1100082  19.2500007  89.8600006 108.2100010  17.1600008
  90.5400085 109.0900040  17.2500002  90.3800011 107.2400093  17.0100009
  89.3500042 108.3300018  16.1800003  88.1800079 109.7800064  18.4200013
  87.3099995 109.9400043  17.7600014  87.8700066 109.9600029  19.4700015
  89.0200043 110.4800034  18.2100010  88.0000019 106.0600090  17.6800013
  88.6600018 105.3800011  18.5300004  87.6900005 105.5500031  16.4500010
  87.2300053 105.9900093  15.6900012  87.9300022 104.1000080  16.1900008
  88.7500000 103.7800026  16.8100011  86.7300034 103.2400036  16.5500009
  86.4200020 103.6800003  17.5200009  87.1500015 102.2400093  16.7900014
  85.5600071 103.2500076  15.5500007  86.0300064 103.1400013  14.5500004
  85.0000000 104.2100048  15.5500007  84.3000031 101.8900013  15.7600009
  83.1400013 102.7100086  16.8000007  83.0700016 103.8000011  16.6000009
  82.1000004 102.4200058  16.5300012  83.2600021 102.6100063  17.9000008
  88.3500004 104.0200043  14.7600007  88.4300041 104.9600029  13.9700007
  88.9500046 102.9000092  14.3900001  88.9600086 102.1800041  15.0900006
  89.3200016 102.5000095  13.0300009  89.6400070 103.3200073  12.4000001
  90.1300049 101.8000031  13.1800008  88.1700039 101.8000031  12.4000001
  87.2399998 101.3200092  12.9800010  88.2299995 101.6300011  11.0500002
  89.1300011 101.8400002  10.6600010  87.3300076 100.9500027  10.1700008
  86.4100075 101.4900017  10.0200009  87.9600048 100.9100056   8.7400001
  89.0000057 100.5200005   8.7600005  88.0400085 101.9600010   8.4100002
  87.0500088 100.2000046   7.6400006  87.0700073 100.8000088   6.7100000
  86.0200024 100.2100086   8.0400002  87.3700047  98.6600018   7.4900001
  86.6200066  98.1700039   6.8300003  87.3400021  98.1700039   8.4900004
  88.7700081  98.4900093   6.9400001  89.4200039  99.2400074   7.0400006
  89.2800045  97.2800064   6.7800003  88.5800076  96.1900043   6.7100000
  87.6300049  96.1600018   7.0400006  89.0000057  95.2900028   6.5700001
  90.5500031  97.1900082   6.4500004  91.1200047  97.9800034   6.2300003
  90.8400059  96.2600040   6.2200004  87.0900059  99.5100021  10.6200004
  85.9300041  99.0400028  10.6200004  88.1200027  98.7500000  11.0900009
  89.0700054  99.0200043  10.9400010  88.0100060  97.3600006  11.5700006
  87.3500061  96.8400002  10.8900011  89.3600082  96.6400051  11.7200005
  90.0600052  97.2500038  12.3200011  89.9800014  96.5300083  10.4300010
  90.2700043  97.4200058  10.2200007  89.2300034  95.2400017  12.1900010
  90.2200031  94.7700024  12.3700011  88.7400055  95.2100086  13.1900001
  88.6500072  94.8200035  11.3500011  87.1300030  97.1800041  12.8200006
  86.2800026  96.3200092  12.8600001  87.2600079  98.1200027  13.7500012
  87.7200031  98.9500046  13.4600008  86.5200043  98.1400013  15.0300002
  86.6900063  97.1600056  15.4400003  86.8200016  99.3900013  15.9800005
  86.1300087  99.4700050  16.8400013  86.9000053 100.2700043  15.3000009
  88.1200027  99.2400074  16.5200007  88.1400013  98.5000038  17.1300006
  85.0200081  98.1500053  14.7300005  84.2199993  97.4200058  15.2400005
  84.5600033  99.1100025  13.8400006  85.2300072  99.7800064  13.5300004
  83.1800079  99.2800045  13.3500004  82.5699997  99.4300079  14.2300010
  83.2200050 100.5800056  12.5100005  83.9000034 100.4400063  11.6500008
  83.6100006 101.4000034  13.1500006  81.8600082 100.9100056  11.8800008
  81.2900066 100.3900051  10.7400000  81.8600082  99.7700024  10.0600004
  80.1000023 101.0900021  10.4700005  79.4400024 101.0600090   9.7500002
  79.8400021 101.8700027  11.5300000  80.9500027 101.8100071  12.4000001
  80.8500004 102.5500011  13.6000001  81.5799999 102.5100040  14.3900001
  79.7200060 103.2700062  13.8400006  79.5800018 103.8800049  14.7200012
  78.7100029 102.6700020  11.8300009  77.7900028 102.5400066  11.2800002
  78.6100054 103.2800007  13.0400002  77.7400017 103.8100052  13.3900011
  82.7100086  98.1000042  12.5700009  81.5600014  97.6600075  12.7300000
  83.5700035  97.5100040  11.7300010  84.4200039  97.9100037  11.3900006
  83.1400013  96.2800026  11.1300004  82.2000027  96.4900017  10.6300008
  84.0700054  95.8700085   9.9000007  83.7900066  94.8600006   9.5200002
  85.1000023  96.0800076  10.2600002  83.8300037  96.8800068   8.6500007
  84.2199993  97.8400040   9.0400004  82.7600002  97.0900059   8.4300005
  84.5600033  96.4800072   7.4000001  85.7500076  96.1300087   7.3700005
  83.9200020  96.4600086   6.3700002  82.7600002  95.1800060  12.1400011
  81.8600082  94.4500065  11.9200003  83.4100056  95.1100063  13.3100009
  84.1600037  95.7400036  13.4900010  83.1500053  94.0600014  14.2300010
  82.7300072  93.2000065  13.7300003  84.4900036  93.5200024  14.8300004
  85.1399994  93.1599998  14.0100002  84.2400074  92.6900005  15.5300009
  85.1600075  94.4700050  15.6400013  84.7600079  95.3200054  15.4400003
  82.1700001  94.2700005  15.3200006  81.7199993  93.3400059  15.9200013
  81.7800045  95.5600071  15.5900002  82.1500015  96.4000034  15.1900005
  80.7999992  95.9000015  16.5900004  81.1500072  95.3000069  17.4200010
  80.6300068  97.3300076  17.0600009  80.3600025  98.0300045  16.2400007
  79.6300030  97.5700092  18.2300007  79.5600033  98.6600018  18.4200013
  78.6200047  97.2600079  17.8800011  79.8600054  96.9800091  19.1400003
  81.9900036  97.8700066  17.5200009  82.8100014  97.2800064  17.0600009
  82.0600033  97.6800060  18.6200011  82.2300053  99.3700027  17.2500002
  81.9200039  99.6100044  16.2200010  81.5000057  99.8600006  17.9200006
  83.2800007  99.6600056  17.4900007  79.4100046  95.4100037  16.0600007
  79.1900015  95.5900002  14.9000013  78.5300016  94.6800041  16.8000007
  78.8400030  94.2100048  18.0900013  79.7600031  93.6000061  18.0000007
  79.0800047  95.0200081  18.8100004  77.0700026  94.4400024  16.4900005
  77.0100021  93.6400032  15.7600009  76.4300013  94.0000057  17.8300011
  75.4900026  93.4100056  17.7700007  76.2300014  94.8800087  18.4700012
  77.6000023  93.3200073  18.4300005  77.6300049  92.3000050  17.9900014
  77.5500059  93.2100010  19.5300007  76.3000059  95.6800079  15.8200002
  76.5300035  96.8200016  16.2300003  75.5400038  95.4300022  14.7100008
  75.4000044  94.4900036  14.4200003  74.6700048  96.4200020  13.9700007
  75.2900028  97.2200012  13.6000001  74.0600014  95.7900047  12.6700008
  73.3400011  95.0600052  13.0900002  74.9000025  95.3000069  12.1200001
  73.2600021  96.7400074  11.7800009  72.4800014  97.3500061  12.2800004
  72.7300024  96.0700035  11.0699999  74.2700052  97.5800037  10.9000003
  75.0100040  98.1300068  11.5000010  74.8400021  96.8800068  10.2500010
  73.4400034  98.5200024   9.9600005  72.9600048  99.2500019  10.6400001
  72.6700020  97.9100037   9.4400007  74.2900038  99.2100048   8.9400005
  74.7800016 100.0300026   9.3500006  75.0900030  98.6300087   8.6400002
  73.6700058  99.6400070   8.2200003  73.6200047  97.2400093  14.8500001
  73.4600019  98.4600067  14.8100007  72.9800034  96.5300083  15.7900012
  73.1200027  95.5400085  15.8400011  72.2300053  97.0900059  16.8700004
  71.3000011  97.4500084  16.4700007  71.7600012  95.9700012  17.7500010
  72.6000023  95.2900028  18.0300009  71.0500050  95.3600025  17.1500003
  71.0900021  96.3800049  19.0500009  70.2900028  97.1200085  18.8400006
  71.8000031  96.9400024  19.6900010  70.5000019  95.1900005  19.8200011
  70.0400019  95.6800079  20.7000017  69.6600056  94.7000027  19.2800009
  71.5400028  94.1600037  20.2900004  72.3400021  94.6900082  20.8600020
  71.9900036  93.6400032  19.4200015  70.8700037  93.1400013  21.1500001
  71.5200043  92.3600006  21.3900018  70.5500031  93.6500072  21.9900012
  69.9900055  92.8100014  20.6900001  72.9800034  98.1000042  17.6800013
  72.4900055  99.2200089  17.8300011  74.2100048  97.8000069  18.1600010
  74.7300053  96.9800091  17.9300010  74.8900032  98.8300037  18.9800012
  74.1300058  99.3400002  19.5600009  75.9500027  98.1700039  19.9200010
  76.3700056  98.9800072  20.5599999  76.7900038  97.6700020  19.4000006
  75.4300022  97.2500038  20.9700012  74.3100023  97.5400066  21.7400002
  73.7300014  98.4000015  21.4400005  73.7600040  96.6600037  22.6400018
  72.8800058  96.9300079  23.1900001  74.5000029  95.4100037  22.8200006
  74.1600037  94.8000050  23.6500001  76.1500025  96.0600090  21.1700010
  77.1400023  95.9300041  20.7600021  75.6500053  95.0700092  22.0200014
  76.2400055  94.1700077  22.1600008  75.7100058  99.8600006  18.1300008
  76.3800049 100.7200050  18.7700009  75.6500053  99.8000050  16.8200004
  75.4000044  98.9900017  16.3000011  76.1300039 100.8700085  15.9600008
  76.9300032 101.4400005  16.4200008  76.7500019 100.3700066  14.6000004
  76.8800020 101.1600018  13.8300002  76.0700035  99.5500088  14.2900002
  78.1700039  99.6800041  14.8400009  78.0600023  98.9300060  15.6500006
  78.8800049 100.4700089  15.1600003  78.7700033  98.9600086  13.6600006
  78.9500046  99.6900082  12.8300011  79.7700024  98.6500072  14.0300012
  77.9400015  97.7900028  13.0800009  76.9700050  98.0800056  12.6100004
  77.7000046  97.0500088  13.8700008  78.8200045  97.1400070  12.0500004
  79.7000027  96.6400051  12.2800004  78.2800055  96.4600086  11.4900005
  79.0300035  97.8100014  11.2900007  75.0300026 101.9200039  15.5900002
  73.9600039 101.4800072  15.1700008  75.3100014 103.2500076  15.5000007
  74.5700026 104.1800022  14.5800006  74.3400049 103.6600018  13.6300004
  73.6200047 104.3300056  15.1500010  76.3600016 103.9600086  16.3100004
  77.3500013 103.7300014  15.9600008  76.1300039 105.4400063  15.9000003
  77.0200014 106.0900021  16.0400009  75.2700043 105.8500004  16.4800012
  75.4700041 105.4000092  14.5200002  76.2000036 105.4300022  13.6800003
  74.8800039 106.3100052  14.3200004  76.3000059 103.8600063  17.7800012
  75.2500057 103.5600090  18.3700013  77.4000025 104.0000057  18.4700012
  78.2300043 104.3600082  18.0500007  77.4600029 103.9700031  19.9700010
  76.9900036 103.0800056  20.3600001  78.9400053 104.0100002  20.4299998
  79.0200043 104.3200016  21.5000010  79.4000053 104.8200035  19.8200011
  79.7600031 102.7300072  20.1400018  79.5500040 102.3000050  19.1300011
  81.2500000 103.0500031  20.4100013  81.5100002 103.7800026  19.6200013
  81.3199997 103.5900021  21.3800001  81.9500065 102.1900082  20.3100014
  79.4100046 101.5400028  20.9900022  79.7800016 100.5400085  20.6800008
  79.6300030 101.7100048  22.0600009  78.3000040 101.4800072  21.0600019
  76.6300058 105.1700020  20.5300021  76.8800020 106.3200092  20.3500009
  75.5700016 104.7300053  21.1700010  75.2300024 103.8000011  21.2800002
  74.5500040 105.5900097  21.6300011  74.0200043 106.1000061  20.8400011
  73.4600019 104.7600079  22.4400020  72.9600048 104.0700054  21.7200017
  72.6700020 105.4500008  22.8200006  74.0500021 104.0000057  23.4800005
  73.4900045 103.2300091  23.6600018  75.0000048 106.7200089  22.5600004
  75.8600044 106.5500069  23.3800006  74.3400049 107.9000092  22.4800014
  73.6000013 107.9700089  21.8099999  74.6000051 109.0500069  23.3500004
  73.9700031 109.8600006  23.0000019  74.2500019 108.7500095  24.8300004
  74.2300034 109.6900082  25.4300022  74.9000025 108.0200005  25.3500009
  72.7500057 108.3900070  24.9100018  71.9700050 109.2800045  24.6200013
  72.4000025 107.1600056  25.4400015  73.1400013 106.5600014  25.7400012
  71.4300013 106.9400024  25.3900003  76.0800028 109.6100044  23.2600021
  76.5300035 110.2300072  24.2100000  76.7600060 109.2600060  22.1100020
  76.2700033 108.7100029  21.4300013  78.2100058 109.5600033  21.8300009
  78.4800053 110.4600048  22.3600006  79.1400051 108.3200073  22.1600008
  80.2099991 108.5400009  21.9600010  78.7500048 107.5200081  21.5100002
  79.2900038 107.9100037  23.6300015  78.4300041 108.1400013  24.3000007
  80.1100063 108.5200024  24.0600014  79.7100019 106.4600086  23.9400005
  80.0100040 106.4900017  25.0100017  80.4900074 106.0600090  23.2500005
  78.4700060 105.7000065  23.8400006  77.6600027 106.1500072  23.4600019
  78.4500027 104.3900013  24.0800023  79.4300032 103.7300014  24.6500015
  80.2500057 104.2900085  24.7700024  79.4400024 102.7400017  24.5400023
  77.3000050 103.8100052  23.7500000  76.6100025 104.3500042  23.2700014
  77.1800041 102.8700066  24.0600014  78.4100056 109.8900032  20.3700018
  77.8600025 109.3500042  19.3900013  79.3400049 110.7800007  20.1600003
  79.5300055 111.4200020  20.9000015  79.8200035 111.1000061  18.8600004
  78.9300060 111.1300087  18.2500005  80.4100037 112.5600052  18.8500011
  81.1500072 112.6000023  19.6800005  80.9600067 112.7800083  17.4200010
  81.6499996 112.0100021  17.0300007  80.1000023 112.8400040  16.7100012
  81.5400028 113.7200069  17.4500012  79.3100023 113.5900021  19.1300011
  78.7600040 113.5700035  20.0999999  78.5600042 113.5500050  18.3100009
  79.8400021 114.9900055  19.0900004  79.8900032 115.2900028  18.0200005
  79.3100023 115.8500099  19.5600009  80.8700085 115.0500011  19.4800007
  80.7999992 110.1000023  18.2900012  81.9200039 109.8400021  18.7800014
  80.3999996 109.4500065  17.1800005  79.6000051 109.6600056  16.6200006
  81.2000084 108.3400059  16.6600013  81.9799995 108.0000019  17.3200011
  80.3100014 107.2000027  16.0900009  80.9300041 106.5000057  15.4900002
  79.5200014 107.6700020  15.4600012  79.7000027 106.3000011  17.1900010
  79.7100019 105.0800037  17.1400011  79.1200018 106.9100094  18.2400012
  78.9300060 107.8800011  18.1300008  78.9300060 106.3300037  19.0300012
  82.0300007 108.9400005  15.4900002  81.5600014 109.4300079  14.4900012
  83.3900070 108.8100052  15.6000006  83.6700058 108.4300041  16.4800012
  84.3400002 109.1800022  14.5900011  83.8400078 109.7300053  13.8000011
  85.3100014 110.2400017  15.1400006  85.9600067 109.8200035  15.9300005
  86.3000011 110.6800079  14.0100002  87.0200062 109.8800087  13.7600005
  85.7800007 110.8600044  13.0500007  86.8900013 111.5600014  14.3500006
  84.5900059 111.4900017  15.6700003  84.0700054 111.9900036  14.8200011
  83.8300037 111.3200092  16.4600003  85.3200054 112.2100067  16.0900009
  85.1300049 108.0400085  14.1000009  85.7000065 107.2900009  14.8500001
  85.2400017 107.8500080  12.7800012  84.8000050 108.3700085  12.0600009
  86.0100079 106.7500019  12.2300005  86.4000034 106.1600018  13.0400002
  85.0800037 105.7800007  11.4300001  84.6800041 106.2600040  10.5200005
  85.8400059 104.4900036  11.1700010  85.9400082 103.8700008  12.0900011
  85.1200008 103.8800049  10.5800009  86.8400002 104.6600056  10.7200003
  83.8000011 105.2700043  12.2500002  83.3500004 106.1500072  12.7600002
  84.1800022 104.6500015  13.0800009  82.5800037 104.7500038  11.4700007
  82.8700066 103.9600086  10.7500005  81.8600082 104.2200089  12.1400011
  82.0499992 105.5500031  10.9100008  87.1700001 107.1800041  11.2800002
  87.0000076 108.0300045  10.4000008  88.3600044 106.5800095  11.4800000
  88.4600067 105.8900070  12.1900010  89.5500088 106.6600037  10.6500006
  89.6400070 107.5900078  10.1100004  90.7900047 106.4600086  11.5000010
  91.6100025 106.0600090  10.8700001  90.6200027 105.6000042  12.1800005
  91.2000084 107.6800060  12.2500002  90.2900028 108.1900024  12.6300001
  92.1000004 107.3800087  13.5000002  91.4700031 106.7600060  14.1700006
  93.0700016 106.9200039  13.2000005  92.3300076 108.3600044  13.9800012
  91.8500042 108.6900043  11.2900007  92.8400040 108.2600021  11.0400009
  91.2300014 108.9000034  10.4000008  92.0400047 109.6400070  11.8300009
  89.3900013 105.5600071   9.6200007  89.3600082 104.3700027   9.8800004
  89.3000031 105.9900093   8.3500004  89.3000031 106.9600010   8.0900002
  89.2700005 105.0700092   7.2700006  89.7900009 104.1400051   7.4700004
  87.8500080 104.6100044   6.8500006  87.3700047 105.3300095   6.1600006
  87.2200012 104.4700050   7.7500004  87.9200077 103.4900093   5.9700000
  88.5400009 102.8400040   6.3100004  90.0200081 105.6200027   6.0800004
  89.9200058 106.8000031   5.7500005  90.8000088 104.7700024   5.3500003
  91.0600090 103.9000034   5.7600003  91.4000034 105.1000023   4.1000003
  91.3000011 106.1700058   3.9900002  92.9300022 104.7900009   3.8600001
  93.1700039 105.1900005   2.8500003  93.0800056 103.6900043   3.7500003
  93.9100075 105.6200027   4.8300001  93.6100006 105.5600071   5.8900005
  93.7300014 106.6800022   4.5400003  95.3900051 105.2200031   4.6100003
  95.8700085 105.3700066   3.6200002  95.5800056 104.1700077   4.8900002
  96.1900043 106.0100079   5.5800003  96.5300083 106.9100094   5.3000003
  96.3400078 105.8300018   6.8700004  95.8800030 104.7800064   7.5600004
  95.6100082 104.0300083   6.9600004  96.2700081 104.6700096   8.4800005
  96.9600010 106.7500019   7.5800002  96.9200039 107.6100063   7.0600003
  96.7500019 106.8500042   8.5500002  90.5600071 104.5000076   2.9600000
  90.3900051 105.0300026   1.8900001  89.9300003 103.3700085   3.2300001
  89.8000050 103.0300045   4.1600001  89.3400002 102.4600029   2.1500000
  89.7900009 102.5800037   1.1700001  89.3900013 100.9700012   2.5900000
  88.5700035 100.4400063   2.0600002  89.1000080 100.8800030   3.9600003
  88.5300064 100.1100063   4.0000001  90.7800007 100.4100037   2.2700001
  91.5100002 101.0400009   2.8100002  90.8500004  99.3600082   2.6300001
  91.0100079 100.4200077   1.1800001  87.8000069 102.8600025   2.0100001
  87.2700024 102.6300049   0.9000000  87.1300030 103.4800053   3.0000001
  87.5500011 103.7100029   3.8800001  85.7000065 103.7500095   3.0200002
  85.2300072 103.5900021   2.0600002  84.9500084 103.0900002   4.2200002
  83.8600063 103.3000088   4.2000002  85.5200005 103.4200096   5.1200002
  85.0200081 101.5500069   4.3500003  86.0700035 101.2000084   4.5200002
  84.1200066 101.0100079   5.5100000  84.5700073 101.2700081   6.4900005
  83.0700016 101.3700008   5.4200006  84.0500069  99.9000072   5.4900002
  84.3700027 100.9100056   3.1200001  85.0100040 101.1200047   2.2400001
  84.2199993  99.8500061   3.4100002  83.3400059 101.2800026   2.9200003
  85.5000019 105.3100014   3.1500003  86.1600018 105.9700012   3.9900002
  84.5900059 105.8600044   2.3000000  84.0799999 105.2100086   1.7400001
  84.1800022 107.2500038   2.4700001  84.9800014 107.7200031   3.0200002
  84.1000080 107.9400063   1.0200001  83.7400055 108.9900017   1.0200001
  83.2500076 107.4500084   0.5100000  85.4200077 107.7900028   0.2500000
  85.9000015 106.7900085   0.3800000  85.9800053 108.6700058   0.6500001
  23.6500001  46.2000036  86.0800076  22.8400016  45.5300045  85.7000065
  23.3100009  47.2400045  85.9100056  24.9900007  45.9600019  85.3500080
  24.7500014  46.1000013  84.2700005  25.3700018  44.9400043  85.5800056
  26.0200024  47.0300007  85.6599998  26.2200022  46.9600010  86.6800022
  26.8600011  47.0800018  85.0500011  25.5900002  47.9400015  85.4100037
  82.8800011 107.5200081   3.1900001  82.2300053 106.5500069   3.6300001
  82.5200081 108.7800026   3.3900002  83.0900002 109.5600033   3.1400001
  81.1500072 109.0300083   3.9600003  81.2100029 108.5500050   4.9300003
  80.9800053 110.5100060   4.1900003  81.8000031 110.8700085   4.8400003
  80.0800037 110.8500099   4.7500002  81.1000061 111.3900089   2.9400000
  80.2300072 111.2600040   2.2700001  81.9400024 111.0000038   2.3300001
  81.3199997 112.8700066   3.1100002  80.6100082 113.2200050   3.8900003
  82.3400021 113.0600071   3.5100001  81.0900021 113.8900089   1.9100001
  81.6300011 114.8300076   2.1800001  80.0500011 114.2500019   1.7800000
  81.7900085 113.4500027   0.7100000  81.8200016 114.2900085   0.1000000
  82.7600002 113.0700016   0.7900000  81.1600018 112.8400040   0.1500000
  79.9300051 108.4400082   3.3000001  78.8900042 108.1900024   3.8100001
  80.0400066 108.2500076   1.9900002  80.8400059 108.5600090   1.4900000
  79.0600014 107.5600052   1.1100001  78.1200027 108.0100060   1.4100000
  17.6000011  46.0800028  86.9799995  16.8100011  45.4900026  86.4600086
  18.6000013  45.7900000  86.6100025  17.4300003  47.6000023  86.6700077
  16.5400004  47.9300022  87.2399998  17.2700012  47.7300024  85.5800056
  18.7000012  48.4900045  86.9799995  19.8500013  47.9900026  87.1700001
  18.5400009  49.7400045  86.7500019  78.8500023 106.1100006   1.4300001
  77.8100014 105.5800056   1.1200000  79.8300028 105.4600048   2.1500000
  80.6000042 105.9400082   2.5800002  79.9300051 103.9600086   2.4500000
  79.3900061 103.4700012   1.6500001  81.4400005 103.5000038   2.5600001
  81.4400005 102.4200058   2.8300002  82.0700073 104.1400051   3.2000002
  81.9700050 103.4500027   1.1500000  81.4100075 102.6800060   0.3000000
  83.0600071 104.0800095   0.8600000  79.2200041 103.7500095   3.7800002
  79.0300035 102.6100063   4.1600001  78.7600040 104.8600006   4.4100001
  78.8500023 105.7700062   4.0300003  78.1100035 104.8800087   5.6800002
  78.0500031 103.8300037   5.9500003  78.9300060 105.4100037   6.8500006
  78.3000040 105.1900005   7.7300006  79.0000057 106.5100098   6.6700006
  80.2800083 104.7900009   7.0400006  81.3800049 105.2300072   6.3100004
  81.2200069 106.0300064   5.6000000  82.6800060 104.7200012   6.5000004
  83.4899998 105.1700020   5.9400004  82.8299999 103.5900021   7.2700006
  83.8199997 103.2300091   7.4900001  80.4600048 103.6700058   7.9000002
  79.6300030 103.2900047   8.4700006  81.7300034 103.1300068   7.9800004
  81.8700027 102.1600056   8.4300005  76.6800022 105.5700016   5.6900001
  76.5400028 106.7400074   5.2500004  75.6400013 104.7400093   6.0100001
  75.8300018 103.7600040   6.0000002  74.3700027 105.2600098   6.1900002
  74.1300058 105.9400082   5.3900003  73.4100056 104.0800095   6.3800001
  73.6200047 103.4200096   7.2400004  73.4300041 103.3900070   5.5000001
  71.9400024 104.4600010   6.3400000  71.5000057 105.5700016   6.0400003
  71.2600040 103.4500027   6.6700006  74.3300056 106.0300064   7.5300002
  73.6600018 107.0600033   7.7100003  74.9500036 105.3900051   8.5400003
  75.3700018 104.5100021   8.3100003  75.1000023 105.8300018   9.9200004
  74.1200018 105.7300091  10.3600001  76.0000038 104.8400021  10.5800009
  76.3700056 105.2600098  11.5400004  76.8800020 104.5700073   9.9400002
  75.2900028 103.5100079  11.0000002  74.1900015 103.6200047  11.1200011
  75.6600046 103.1200027  11.9800007  75.4400015 102.3300076  10.0100005
  75.8000040 102.5100040   8.8300002  75.1400042 101.2000084  10.3800011
  75.4100037 107.2700024  10.2100003  76.1800051 107.8800011   9.4400007
  74.8600054 107.9000092  11.2800002  74.1300058 107.3600006  11.6800010
  75.3800058 109.1300011  11.8000007  75.3500032 109.8200035  10.9700000
  74.2500019 109.6100044  12.7300000  74.1300058 108.9700031  13.6300004
  73.2500029 109.7000027  12.2600007  74.5300055 111.0300064  13.3200002
  75.1400042 111.9000053  12.6300001  74.0900040 111.2600040  14.4500005
  76.8700027 109.0900040  12.3900008  77.0800018 109.0500069  13.6000001
  77.8900051 109.2900085  11.4900005  77.7800035 109.2800045  10.5000007
  79.2500019 109.1100025  11.9700003  79.2600060 109.3600082  13.0200005
  79.8400021 107.7100086  11.5600002  80.9400082 107.8000069  11.6100001
  79.3000031 106.5900040  12.4300003  79.8800039 106.5600014  13.3700001
  78.2100058 106.8000031  12.5400007  79.6900034 105.6200027  12.0500004
  79.6100044 107.4500084  10.0400007  79.9800014 108.3200073   9.4700003
  80.1100063 106.5000057   9.7600007  78.5100031 107.4300098   9.8800004
  80.0200081 110.2000046  11.2800002  79.5500040 110.7800007  10.3000009
  81.1299992 110.5500031  11.9300008  81.2600040 110.2000046  12.8600001
  82.1100044 111.3400078  11.2400007  81.6499996 111.9400024  10.4700005
  82.8900051 112.2900009  12.2300005  83.7100029 112.7400017  11.6300011
  83.1800079 111.8900013  13.2300007  81.7900085 113.3200073  12.5800002
  80.9899998 113.1800079  13.7200010  81.0700035 112.2900009  14.3200004
  80.1100063 114.1700077  14.1100001  79.5600033 114.1800022  15.0300002
  79.8600054 115.2800083  13.2500005  78.9700031 116.2400055  13.6300004
  78.6900043 116.7000103  12.8300011  81.6499996 114.4300079  11.7400002
  82.2300053 114.6400070  10.8600008  80.7400036 115.4300022  12.1400011
  80.7700062 116.3400078  11.5600002  83.1500053 110.3700066  10.6700003
  83.5500050 109.4400024  11.3300002  83.5200024 110.5800056   9.3800002
  83.0300045 111.3100052   8.9200002  84.5800018 109.8700047   8.6500007
  84.9900055 109.0900040   9.2800003  83.9900017 109.3200016   7.3800004
  83.6600018 110.1600075   6.7300004  85.0800037 108.6100006   6.5900004
  84.7800064 108.2500076   5.5800003  86.0100079 109.2000008   6.5200001
  85.4200077 107.7600098   7.2200006  82.7900028 108.4300041   7.6300001
  82.6399994 107.8900051   6.6700006  81.9300079 109.1100025   7.8200006
  82.8200054 107.4100018   8.7600005  82.7800083 107.8900051   9.7600007
  82.0400047 106.6200066   8.7200004  83.7900066 106.8700027   8.7900007
  85.7700062 110.8500099   8.3700001  85.6200027 112.0000076   7.9000002
  87.0300007 110.4100037   8.6100006  87.1400070 109.4500065   8.8700002
  88.2800007 111.0700035   8.4500003  88.0700016 111.8100071   7.7000004
  88.8300037 111.6600037   9.7400004  89.9200058 111.8500042   9.6100003
  87.9900074 112.9700089  10.1200008  87.9500008 113.7000084   9.2800003
  86.9500065 112.7500057  10.4100001  88.5200024 113.4800053  10.9400010
  88.8400078 110.6300068  10.9600008  89.4600010 109.7300053  10.7900000
  87.8000069 110.2400017  11.1000001  89.3000031 111.2800026  12.2400010
  90.2800083 111.7800045  12.0800006  88.5800076 112.0700073  12.5600004
  89.3600082 110.5500031  13.0800009  89.2300034 110.0200081   7.8900003
  89.0300083 108.8000011   8.1500006  90.3299999 110.3800011   7.2500002
  90.3800011 111.2700081   6.8000001  91.3300037 109.4600010   6.6300005
  91.1000061 108.4200096   6.8000001  91.2700081 109.7300053   5.1300001
  90.1900005 109.5600033   4.8900002  91.8300056 108.9300060   4.6000001
  91.7400074 111.1400032   4.7300002  91.9300079 111.9500065   5.5900002
  91.7800045 111.3900089   3.4100002  91.4300060 110.6900024   2.7800003
  91.9099998 112.3200035   3.0800003  92.7400017 109.6800041   7.1900004
  93.7400055 109.1600037   6.6400003  92.8200054 110.3800011   8.3300006
  91.9200039 110.6800079   8.6500007  94.0200043 110.7200050   8.9900005
  94.5600033 109.8500061   9.3200004  94.8600006 111.6400051   8.1400001
  95.2100086 111.0500050   7.2700006  95.7900047 111.9300079   8.6800003
  94.3700027 113.0400085   7.6900005  94.2400074 113.6900043   8.5800004
  93.4300041 112.9600048   7.1000004  95.4000092 113.7900066   6.8400002
  96.2800026 113.9000034   7.5000006  95.5600071 113.3000088   5.8600003
  95.0300026 115.2700043   6.5300006  95.8300018 115.8000088   5.9900004
  94.6900082 115.8200073   7.4300003  93.8600063 115.2700043   5.5900002
  94.0900040 114.7300053   4.7300002  93.0100060 115.0100040   6.1200005
  93.6600018 116.2300014   5.2400005  93.7600040 111.4200020  10.3200006
  92.7400017 111.9800091  10.6000006  94.7399998 111.3100052  11.2700009
  95.5300045 110.7500076  11.0500002  94.7399998 111.8000031  12.6000011
  93.9200020 111.4700031  13.2100010  95.9900093 111.2500095  13.2700002
  96.8400002 111.5600014  12.6200008  96.3200092 111.8100071  14.6200001
  96.7500019 112.8200054  14.4300008  95.4600048 111.8200016  15.3200006
  97.2200012 111.3500023  15.0900006  95.8500004 109.7700024  13.4600008
  94.9400043 109.5600033  14.0700006  95.7800007 109.1700077  12.5300002
  96.6300011 109.3100071  14.1000009  94.7600079 113.2800007  12.7400005
  93.9600086 113.8200092  13.4600008  95.5200005 114.0200043  11.8700004
  96.2100029 113.5400009  11.3400006  95.5300045 115.4400063  11.7800009
  96.0500050 115.9000015  12.6100004  96.3100052 115.7400036  10.4300010
  96.2400055 116.8400097  10.2500010  95.7200050 115.3600025   9.5700002
  97.8600025 115.3900051  10.4500008  98.2500076 116.1600018  11.1600006
  98.2400036 115.4100037   9.4000006  98.2300091 114.0000057  11.0000002
  97.7800083 113.0000019  10.3800011  98.9500046 113.9500046  12.0100009
  94.0900040 116.0200024  11.6700006  93.6900043 116.9700050  12.3200011
  93.3100033 115.4100037  10.7600009  93.6700058 114.5700073  10.3600001
  91.9200039 115.7200050  10.6200004  91.8800068 116.8000031  10.5300009
  91.3900089 115.0300026   9.3000007  90.2800083 115.1000023   9.2100006
  91.5900040 113.9400101   9.2500007  91.9000053 115.7000065   8.0700004
  92.5600052 116.7700100   8.1900007  91.6100025 115.2800083   6.9200003
  90.9800053 115.4200077  11.7900002  89.9300003 116.0200024  11.9000006
  91.3000011 114.4500065  12.7000010  92.1900082 114.0000057  12.6000011
  90.6000042 114.4400024  13.9700007  89.5500088 114.3800068  13.7400007
  91.1100006 113.2300091  14.8800004  92.1500015 113.4900093  15.1700008
  91.2300014 112.3100090  14.2800009  90.3000069 113.0300045  16.2000012
  90.0900078 114.0000057  16.7000008  88.9500046 112.3800087  15.9600008
  89.0000057 111.3000011  15.7100010  88.3600044 112.5400066  16.8800008
  88.4600067 112.9200077  15.1200008  91.1800003 112.2800064  17.2000003
  90.8200073 112.1400070  18.2400012  91.4200020 111.2600040  16.8200004
  92.0400047 112.9900074  17.2000003  90.6800079 115.7200050  14.7900009
  89.7100067 116.2300014  15.2700007  91.9500065 116.2800026  14.9500012
  92.8200054 115.8500099  14.7000003  92.2300053 117.5100040  15.7300007
  91.8200016 117.2500038  16.6900003  93.7100029 117.7400017  15.8600008
  93.9600086 118.3300018  14.9500012  93.9100075 118.6100101  17.0500004
  94.9400043 118.9600086  17.2800004  93.2500076 119.5000076  17.0100009
  93.5800076 117.9900074  17.9200006  94.7200012 116.5800095  15.9100008
  95.7200050 116.9800091  16.2100005  94.8000050 116.0700035  14.9400008
  94.3200016 115.4300022  16.8700004  94.1900063 115.8200073  17.9000008
  93.4400082 114.8400021  16.5200007  95.2200031 114.7800064  17.0000005
  91.4900017 118.6900043  15.1700008  90.9700012 119.5300102  15.9400010
  91.4300060 118.8400078  13.8500011  92.0500088 118.3100033  13.2800007
  90.6800079 119.8400021  13.1600010  90.9200001 120.8200073  13.5400009
  90.9500027 119.7400093  11.6700006  90.7100010 118.7700081  11.1900008
  90.2000046 120.8000088  10.7900000  89.2200089 120.4000092  10.4700005
  90.0500011 121.7600060  11.3200009  90.7900047 121.0500050   9.8700005
  92.3500061 119.9600029  11.4500010  93.1000042 119.2500019  11.8600011
  92.5500011 119.9100018  10.3600001  92.7900028 120.9500027  11.7100000
  89.1100025 119.7100067  13.4000003  88.4400082 120.7000065  13.7500012
  88.5300064 118.5000038  13.3400011  89.1800022 117.7900028  13.1100011
  87.1600056 118.1300068  13.6800003  86.5200043 118.8400078  13.1900001
  86.9099998 116.5700054  13.5300004  87.6100063 115.9500027  14.1400003
  87.1700001 116.4400101  12.4600005  85.4200077 116.1400032  13.6200011
  85.0600052 116.4200020  14.6300006  84.4600010 116.8600082  12.5900006
  84.8700047 116.7200089  11.5600002  83.4500027 116.4300060  12.7300000
  84.4700050 117.9300022  12.8800011  85.2700043 114.6700096  13.3900011
  85.6000042 114.5000076  12.3400009  85.8800030 113.9900017  14.0200007
  84.2199993 114.3600082  13.5500002  86.9200039 118.2900047  15.2200007
  85.9200001 118.9000034  15.6200004  87.8299999 117.8900051  16.1200011
  88.5900021 117.3200035  15.8100009  87.7400017 118.2000065  17.5500011
  86.7800045 117.9000092  17.9600012  89.0300083 117.6100063  18.3100009
  89.0600014 117.9900074  19.3500006  89.9200058 117.8300095  17.6800013
  88.9600086 116.0400009  18.4700012  88.9200020 115.6000042  17.4600005
  90.2100086 115.4900074  19.2500007  91.1100006 115.2600098  18.6400008
  90.5100060 116.2500095  20.0000000  90.0300026 114.5900059  19.8900008
  87.7800083 115.5700016  19.3700004  86.8800068 116.1700058  19.1100013
  87.4200058 114.5500088  19.1200006  88.0500031 115.5800056  20.4500008
  87.8100014 119.7200012  17.8900003  87.0200062 120.2300072  18.6700010
  88.6000061 120.4700089  17.0900011  89.3200016 120.0600052  16.5300012
  88.5400009 121.9100094  16.9500005  88.8000011 122.3800087  17.8800011
  89.0100002 122.1800041  16.0200012  87.1300030 122.4300098  16.6300011
  86.6900063 123.4100056  17.2000003  86.3700008 121.7600060  15.7400012
  86.5300083 120.8900070  15.2800012  85.0600052 122.2200012  15.4300010
  85.0000000 123.3000088  15.3800011  84.6000004 121.8000031  14.0100002
  83.5500050 122.1500015  13.9300001  84.7100067 120.7000065  13.9800012
  85.5400085 122.3700047  12.8800011  86.6300011 122.2100067  13.0500007
  85.3999996 123.4700012  12.8200006  85.2100086 121.7100048  11.5600002
  85.3800011 120.6200027  11.5900004  84.1400051 121.8900013  11.3600004
  86.0900021 122.3700047  10.4900002  87.1600056 122.3100090  10.7900000
  85.7700062 123.4300041  10.4400003  85.8500004 121.6300011   9.2700005
  84.8600006 121.3800049   9.0500003  86.1000061 122.1800041   8.4200007
  86.4600086 120.7900047   9.2200005  84.0200043 121.7400074  16.3900006
  82.9900074 122.3900032  16.5900004  84.1300011 120.5700016  17.0200002
  84.8600006 119.9300098  16.7900014  83.1200027 119.9400043  17.9400003
  82.1400070 120.1600075  17.5300014  83.2900047 118.3900070  18.0500007
  82.5200081 117.9700089  18.7300014  84.2600060 118.2600021  18.5700011
  83.0800056 117.5800037  16.7200005  83.8800049 117.8200054  16.0000002
  83.2400036 116.0600090  17.0400012  82.4500084 115.7300091  17.7500010
  83.3400059 115.4800034  16.1000013  84.2500019 115.8500099  17.4400008
  81.8100071 117.9900074  15.9400010  81.8200016 119.0900040  15.7800007
  81.8700027 117.3900032  15.0100005  80.9400082 117.7400017  16.5700006
  83.0600071 120.5700016  19.3300009  84.0100002 121.2000084  19.8200011
  81.9500065 120.4800034  20.0600004  81.1100006 120.3500080  19.5400012
  81.8400002 120.7800102  21.4900017  82.6700020 121.3000011  21.9500017
  80.5800056 121.7400074  21.7200017  80.3800011 121.8900013  22.8000021
  79.7000027 121.2800026  21.2300014  80.8900070 123.1100082  21.0500002
  80.2200031 123.5300064  20.1300001  81.8100071   0.2600000  21.6900015
  82.2800064 123.4200096  22.4700022  81.9400024   1.2200001  21.4800000
  81.5700054 119.4200039  22.0800018  80.6700039 118.7200069  21.6500020
  82.4300003 119.0300083  22.9900002  83.0800056 119.6900082  23.3600020
  82.4400043 117.7000046  23.5400009  81.4200020 117.3700047  23.6300015
  83.1400013 116.7500019  22.5999999  82.6200008 116.7900085  21.6200018
  83.0200005 115.7500076  23.0800009  84.6100044 117.0800018  22.4200010
  85.0300026 118.0600071  21.4400005  84.2500019 118.5300064  20.8500004
  86.4100075 118.2100010  21.2800002  86.8000031 118.9300060  20.5900002
  87.2200012 117.6100063  22.2300005  88.4800053 118.1400013  22.3500013
  89.0900040 117.5500011  22.8000021  85.3999996 116.4000034  23.2700014
  85.0400066 115.6100082  23.9200020  86.8000031 116.6800022  23.2400012
  87.5500011 116.2700081  23.9000010  83.0500031 117.7900028  24.9000001
  83.8199997 118.7300014  25.1900005  82.8000069 116.8200016  25.7000017
  82.1900082 116.1100101  25.3500009  83.3700085 116.7300034  27.0500016
  83.5300064 117.7500057  27.3600006  82.3500061 116.0400009  28.0000019
  82.1900082 115.0200081  27.5800014  81.3300037 116.4900017  27.9700017
  82.8400040 115.8500099  29.4100022  83.0700016 116.9900036  30.1900005
  82.8800011 117.9600048  29.7400022  83.6700058 116.8300056  31.5000010
  83.9300060 117.7200031  32.0600009  83.8500023 115.5800056  32.1100020
  84.3600082 115.4100037  33.4900022  84.5800018 114.4900036  33.6200023
  83.0400085 114.5900059  29.9600005  82.8600025 113.6900043  29.4000006
  83.4700012 114.4800091  31.3100004  83.4899998 113.4800053  31.7200017
  84.7700024 116.0300064  26.9300008  85.8100033 116.6400051  26.9300008
  84.8200035 114.7000027  26.7700005  84.0200043 114.1100025  26.7700005
  86.1100006 113.9600086  26.5700006  86.8500042 114.7400093  26.4800024
  86.4200020 113.0200100  27.7600002  87.3600006 112.5300026  27.4200010
  85.5900002 112.3000050  27.8900003  86.7800045 113.9500046  28.9000010
  85.9600067 114.6400070  29.1900015  87.6200008 114.6300030  28.6400008
  86.9700050 113.2900047  30.3100014  85.9600067 112.9200077  30.5700016
  87.6500034 112.4200058  30.2700019  87.5000000 114.3800068  31.2100005
  86.7500019 115.1900101  31.2900019  88.4600067 114.8100090  30.8600020
  87.7400017 113.6500072  32.4900007  88.0100060 112.6600075  32.3400021
  88.5800076 114.0400028  32.9700017  86.9799995 113.7600040  33.1900024
  86.1300087 113.3300018  25.2200007  85.1500034 113.1400013  24.5700002
  87.3600006 113.0400085  24.7000003  88.1700039 113.2400036  25.2600002
  87.6300049 112.2700024  23.5300016  86.7000008 111.9500065  23.0800009
  88.5300064 113.0200100  22.5400019  89.5300007 113.1800079  23.0100012
  88.2600021 114.0800095  22.3500013  88.8500023 112.0600033  21.0100007
  87.7000046 112.4400043  20.4600000  88.2200050 110.9600067  23.9500022
  89.2600060 110.9600067  24.6000004  87.6600075 109.8300076  23.6200023
  86.7600060 109.8500061  23.2000017  88.1400013 108.5100079  23.9400005
  89.0400028 108.5300064  24.5400023  86.9799995 107.8000069  24.5600009
  87.1800041 106.7200089  24.4600010  86.0200024 108.0400085  24.0600014
  86.8200016 108.1300068  26.0500002  87.8000069 107.7800083  27.0200014
  88.6700058 107.2400093  26.6900015  87.7600002 108.2200050  28.3000016
  88.4500027 108.0500031  29.1100025  86.6300011 109.0400028  28.7100005
  86.4100075 109.5600033  29.6300006  85.6400013 108.7800026  26.4700007
  84.7900009 109.0600014  25.8500004  85.6300068 109.2300034  27.7100015
  84.7500038 109.7800064  28.0300021  88.6300087 107.7100086  22.6900005
  87.7500057 107.4200058  21.9100022  89.8800087 107.3400021  22.5400019
  90.5200005 107.8800011  23.0900002  90.4500008 106.3900089  21.5799999
  89.9500084 106.5600014  20.6400013  92.0500088 106.4300060  21.4800000
  92.5600052 106.1300087  22.4200010  92.5900078 105.5500031  20.3299999
  92.1800041 104.5200062  20.3500009  92.3600006 106.0400009  19.3600011
  93.6900043 105.3800011  20.3600001  92.5800037 107.8800011  21.2900019
  93.6300087 107.7500057  20.9400010  92.5200081 108.5800076  22.1500015
  91.8800068 108.6900043  20.1500010  92.5699997 109.4200039  19.6800005
  91.7500019 108.0200005  19.2700005  90.9000015 109.0400028  20.5300021
  90.1200008 105.0200081  22.0200014  90.2400017 104.6600056  23.1600022
  89.4500065 104.2500019  21.0900021  89.0600014 104.6600056  20.2700019
  88.8400078 102.9700089  21.4000010  89.1800022 102.6900005  22.3900008
  87.3000050 103.1100082  21.4800000  86.9099998 102.1400070  21.8400002
  86.7500019 104.0300083  22.5500011  86.9300079 105.0200081  22.0900011
  85.6599998 103.9900017  22.7300000  87.3300076 103.8700008  23.4900022
  86.6100025 103.3000088  20.0800014  87.1100044 102.6400089  19.3400013
  86.7100048 104.3700027  19.7900009  85.1000023 102.9100037  20.1500010
  84.5600033 103.3600044  21.0100007  84.5400047 103.2100010  19.2400014
  85.1100063 101.8000031  20.1999998  89.3000031 101.8200016  20.5500007
  88.8400078 100.6600094  20.6800008  90.3700066 102.1000004  19.7000015
  90.7299995 103.0200005  19.8200011  91.1700058 101.1700058  18.9400005
  92.1100044 101.6800022  18.7800014  91.1800003 100.2000046  19.4100010
  90.6700039 100.9800053  17.5300014  89.9500084 101.8400002  17.0300007
  91.0000038  99.8400021  16.8600011  90.7000065  99.8600006  15.9100008
  91.8400002  98.7600040  17.3200011  91.4400005  98.3600044  18.2500005
  91.6800022  98.0300045  16.5400004  93.3500004  99.1200066  17.3600006
  93.6900043 100.2300072  17.6500010  94.1800022  98.0800056  17.1800005
  93.8000011  97.1800041  16.9800007  95.5800056  98.1800079  17.5700009
  95.6500053  98.4500027  18.6200011  96.3000011  96.8000031  17.2700012
  95.6800079  95.9900093  17.7000010  97.2600079  96.5900040  17.8000009
  96.3200092  96.6000080  15.8400011  97.1900082  96.2500000  15.6500006
  96.4900017  99.2400074  17.0200002  97.2700024  99.9400043  17.6300013
  96.3200092  99.4200039  15.6600010  95.8700085  98.6200047  15.2600002
  96.9300079 100.5100060  14.8700011  97.9900074 100.3800011  15.0300002
  96.6300011 100.4400063  13.3900011  95.5400085 100.6000042  13.2500005
  97.2800064 101.4400005  12.4600005  96.8900013 101.3300037  11.4300001
  97.0600033 102.4800014  12.7900004  98.3700085 101.2600040  12.2900009
  97.2000027  99.0400028  12.9600000  96.4300060  98.2800007  13.2300007
  97.5000000  98.8600063  11.9100010  98.1500053  98.8600063  13.5100007
  96.5500069 101.8800068  15.3400004  97.4100018 102.7300072  15.5100012
  95.2500057 102.0600033  15.5500007  94.5800018 101.3700008  15.2700007
  94.7000027 103.2700062  16.0600007  95.1500034 103.9400005  15.3400004
  93.1100082 103.2900047  16.0900009  92.8500080 102.3100090  16.5500009
  92.4600029 104.3700027  17.0200002  91.3600063 104.4200039  16.8700004
  92.6900005 104.1400051  18.0800009  92.8900051 105.3400040  16.7000008
  92.6500034 103.4000015  14.6100008  93.1300068 104.2800045  14.1400003
  93.0100060 102.4800014  14.1100001  91.5400028 103.3800030  14.5700002
  95.3000069 103.5500050  17.4000013  95.6900024 104.6500015  17.7600014
  95.5200005 102.5800037  18.2900012  95.3299999 101.6300011  18.0600011
  96.2100029 102.7400017  19.5900011  95.8200073 103.5400009  20.2100015
  96.1200047 101.4400005  20.5000019  96.7000008 101.6100025  21.4300013
  96.6400051 100.5500031  20.0600004  94.7100067 101.1900043  21.0400009
  93.9500046 102.1600056  21.7200017  94.3700027 103.1500053  21.8500018
  92.7100086 101.8100071  22.2600007  92.1100044 102.4700069  22.8600001
  92.1900082 100.5000019  22.0900011  91.0900021 100.0700092  22.8100014
  90.8000088 100.7900047  23.3800006  94.1700077  99.9300003  20.8899999
  94.6800041  99.1500092  20.3400016  92.8900051  99.5200062  21.3700008
  92.4600029  98.5500050  21.1700010  97.7000046 103.1500053  19.4300008
  98.1400013 104.1600037  19.9600005  98.4300041 102.4400043  18.5800004
  97.9700089 101.6600037  18.1600010  99.8500061 102.6900005  18.2400012
 100.4300022 102.6600075  19.1500008 100.2900028 101.6100025  17.1900010
  99.6500015 101.4800072  16.3000011 100.2300072 100.6600094  17.7600014
 101.7400074 101.7000008  16.6300011 101.8700027 102.3800087  15.7600009
 101.9400024 100.7100010  16.1600006 102.8300095 101.7500019  17.7300012
 102.9600048 100.8400059  18.5000014 103.6000061 102.8500080  17.7800012
 103.4900093 103.6600018  17.2100008 104.3900013 102.7800083  18.3800006
 100.1200008 104.0300083  17.6300013 100.9900093 104.8300076  18.0000007
  99.3500042 104.5600033  16.5700006  98.5900021 104.0200043  16.2300003
  99.6000004 105.8200073  15.9400010 100.6200027 105.9700012  15.6200004
  98.8700008 105.8400059  14.5700002  98.9900017 104.8800087  14.0200007
  99.3300056 106.6900063  14.0300012  97.3800087 106.0800076  14.4400012
  97.0600033 107.1000004  14.7600007  96.8300056 105.4500008  15.1700008
  96.8800068 105.7800007  13.0900002  97.4600029 106.2800026  12.0700002
  95.8700085 105.0200081  13.0700004  99.2500019 106.9800091  16.8600011
  99.9300003 108.0100060  16.7400002  98.2300091 106.8400097  17.8600013
  97.5900078 106.0700035  17.8500009  98.0400085 107.9000092  18.8700008
  98.1500053 108.8800049  18.4300005  96.6200066 107.6200008  19.4700015
  96.5500069 108.0600071  20.4900002  96.4400005 106.5300083  19.3700004
  95.6400013 108.4400082  18.6000013  95.0000000 107.8400040  17.5400007
  95.3400040 106.8600082  17.2300005  94.2000008 108.6700058  16.6600013
  93.8900089 108.2100010  15.7400012  93.9700031 110.0000095  17.0000005
  93.4100056 110.6100082  16.3100004  95.2300072 109.7500038  19.0000010
  95.7200050 110.1500034  19.8800004  94.3900013 110.5400085  18.2500005
  94.1000080 111.5400028  18.5400009  99.1800022 107.8200054  19.9300015
  99.5900059 108.8400078  20.5300021  99.6200085 106.6100025  20.2800012
  99.2300034 105.8000088  19.8400009 100.7900047 106.5400028  21.2000012
 100.6200027 107.1400070  22.0800018 101.0200024 105.1000023  21.8900013
 102.0800018 105.0200081  22.1900010 100.9000015 104.3800068  21.0600019
 100.0200081 104.7100067  22.9600000  99.0100002 105.0100040  22.6100016
  99.8400021 103.2400036  23.2300019  99.1900063 103.1200027  24.1300011
  99.3300056 102.7900028  22.3600006 100.8100033 102.7400017  23.4600019
 100.0300026 105.4500008  24.2900014 100.0100040 106.5600014  24.1700006
  99.2200089 105.1500034  24.9900007 101.0200024 105.2700043  24.7700024
 102.1100044 107.1700096  20.6800008 102.8300095 107.9600048  21.3600016
 102.5300026 106.9200039  19.4000006 102.0000076 106.3500023  18.7800014
 103.7500095 107.4600029  18.8700008 104.4700050 107.4200058  19.6800005
 104.2200089 106.6800022  17.5700009 104.3200016 105.6200027  17.8900003
 105.2600098 106.9300079  17.2900009 103.3300018 106.8300056  16.3600004
 103.4900093 107.8700066  16.0000002 102.2400093 106.7000008  16.5500009
 103.7000084 105.9200096  15.2600002 103.7900066 104.6900082  15.4800010
 104.1000080 106.4000034  14.1500008 103.5800076 108.9200020  18.4800005
 104.5800018 109.6500015  18.4100008 102.3400021 109.4100094  18.2500005
 101.6700077 108.6800098  18.1400013 102.1800041 110.8300018  18.0200005
 103.0800056 111.1200047  17.4900007 100.9600067 111.1600018  17.0000005
 100.5700016 112.2000027  17.1100008 100.1700020 110.4500008  17.3000014
 101.4500046 111.0100079  15.5500007 101.7800045 109.9800014  15.3100002
 102.2800064 111.7300034  15.3900003 100.3100014 111.2900066  14.4900012
  99.3800068 110.7200050  14.6600008 100.1700020 112.3900032  14.5600009
 100.7200050 110.9000015  13.0700004 100.8000088 109.7900009  13.0100012
 101.7100048 111.3400078  12.8300011  99.7900009 111.3300037  11.9800007
  98.9700031 110.6900024  11.9900000  99.5100021 112.3200035  12.1400011
 100.2300072 111.2200069  11.0400009 101.9900036 111.6100025  19.2700005
 101.8400002 112.8100014  19.2800009 101.9300079 110.8600044  20.4000020
 101.9900036 109.8600006  20.3200006 102.0600033 111.2700081  21.8200016
 102.2600079 110.4300022  22.4700022 103.3300018 112.1800041  22.1000004
 103.4300041 112.2500038  23.2000017 103.2400036 113.1600094  21.5900016
 104.6300030 111.6100025  21.6200018 105.5600071 112.2100067  21.7400002
 104.5400047 111.4600086  20.5200005 105.0700092 110.3100014  22.3400021
 105.1100063 110.6100082  23.4100008 104.3000031 109.5100021  22.2000003
 106.3700008 109.8500061  21.8700004 107.1800041 110.6000042  21.9900012
 106.4000034 109.7200012  20.7700014 106.6800022 108.5600090  22.4500012
 107.6200008 108.1100082  22.3900008 106.4100075 108.6000061  23.4500003
 106.0600090 107.8700066  21.9700003 100.7600021 112.0000076  22.2700000
 100.7200050 112.8800011  23.1200004  99.6300030 111.4800072  21.7500019
  99.6900082 110.7300091  21.0900021  98.3200073 112.1200085  21.7600012
  98.4300041 113.1800079  21.9600010  97.5900078 111.8500042  20.4600000
  96.5000057 112.0500088  20.4200006  97.8299999 110.7800007  20.2900004
  98.1600094 112.6800060  19.3500006  99.2400074 112.4400043  19.2500007
  97.4600029 112.2800064  18.0300009  97.4900055 111.1700058  17.9900014
  96.4000034 112.5900078  17.8800011  97.9900074 112.6400089  17.1300006
  98.1100082 114.2000008  19.6000004  98.8100052 114.4500065  20.4200006
  98.5500050 114.6700096  18.6900008  97.0900059 114.6300030  19.6700013
  97.5200081 111.7000008  22.8800011  96.4000034 112.1200085  22.9900002
  98.0700016 110.8400059  23.8000011  98.9700031 110.4800034  23.5700011
  97.2100067 110.2500057  24.8000002  96.1500072 110.4100037  24.6800017
  97.4400043 108.7700081  24.8400021  98.5300064 108.5600090  24.8600006
  96.7400074 108.1800079  26.0400009  95.7200050 108.6200047  26.1300015
  96.5400028 107.0900059  25.9700012  97.1900082 108.3300018  27.0500016
  96.8900013 108.0300045  23.5200000  97.1200085 106.9500065  23.6500001
  97.5200081 108.4000015  22.6900005  95.3900051 108.1700039  23.2900000
  95.1400089 107.4300098  22.5000000  94.8100090 107.9600048  24.2100000
  95.0900078 109.1800022  22.9400015  97.6200008 110.9100056  26.1600018
  98.7700081 111.1000061  26.5500021  96.6000080 111.4400005  26.9000006
  95.7200050 111.5500069  26.4400005  96.7700005 111.9800091  28.2100010
  97.7600002 112.3500061  28.4400010  95.6599998 113.1000042  28.4500003
  94.6500015 112.6600075  28.2800007  95.8300018 113.8600063  27.6600003
  95.7200050 113.8200092  29.8200011  96.7500019 114.2200089  29.8800015
  95.5700016 113.0900097  30.6400013  94.8500061 114.9800014  29.8600006
  95.1900005 115.6900024  29.0800023  93.8000011 114.7600079  29.5600009
  94.7900009 115.7900047  31.1800003  95.7400036 115.6700039  31.7300010
  94.0000057 115.5200100  31.9100022  94.4500065 117.1900082  30.7200003
  95.2600002 117.6400089  30.2600026  93.6400032 117.2300053  30.0600004
  94.2200089 117.7500057  31.5700006  96.7300034 110.8700085  29.3800020
  97.5100040 110.9400082  30.3500009  95.7900047 109.9100018  29.1900015
  95.2600002 109.9800014  28.3500004  95.5800056 108.8100052  30.0600004
  96.5500069 108.5300064  30.4400015  94.5000076 108.9500046  31.3000011
  94.7500038 108.1100082  31.9900012  93.4899998 108.8100052  30.8700013
  94.6300030 110.1900005  32.2300005  94.6600056 111.0000038  31.4700007
  95.6400013 110.2200031  32.6900005  93.4400082 110.2600098  33.1500006
  92.5000000 110.1300049  32.5700021  93.6300087 109.4200039  33.8500023
  93.3300018 111.4300060  34.0400004  93.2300091 112.4400043  33.6000013
  94.1800022 111.5300083  34.7400022  92.1600056 111.2800026  34.9300027
  92.1300030 110.4000092  35.4800010  92.0600033 112.1400070  35.5200028
  91.3199997 111.2000084  34.3100023  95.0400066 107.6400089  29.3300009
  94.2500019 107.6300049  28.3600020  95.5800056 106.4700031  29.8000026
  96.2900066 106.3900089  30.5000019  95.0800037 105.1700020  29.3100023
  94.3900013 105.2700043  28.4800005  96.2600040 104.2300034  28.9400005
  96.7400074 103.9000034  29.8900008  95.7000065 103.1500053  28.0400014
  94.9100018 102.5100040  28.4900022  95.1300049 103.6000061  27.2000003
  96.4800072 102.5200081  27.5600004  97.5100040 104.9600029  28.3100009
  97.8000069 105.8200073  28.9300013  97.0900059 105.3800011  27.3700023
  98.7200069 104.0900040  27.9700017  98.6400032 103.8100052  26.9000006
  99.6600056 104.6800041  28.0700016  98.7500000 103.1800079  28.6200023
  94.3400002 104.3700027  30.3700018  94.8800087 103.8600063  31.3900018
  93.0300045 104.2600060  30.2200007  92.5900078 104.6800041  29.4300008
  92.1100044 103.4300041  31.0600019  92.3100090 103.4500027  32.1200013
  90.7200050 104.0500069  30.9000015  89.9100018 103.4000015  31.2900019
  90.5800056 104.3500042  29.8400021  90.7500076 105.3900051  31.6800022
  90.7700062 106.6000080  31.0300016  90.9300041 106.5800095  29.9600005
  90.5000019 107.7900028  31.6900015  90.7800007 108.7500095  31.2900019
  90.1400089 107.7000046  33.0600023  89.9100018 108.9500046  33.7700009
  89.4600010 108.8200092  34.6100020  90.3100014 105.3400040  33.0000019
  90.2300072 104.3400097  33.4000015  89.9200058 106.4800072  33.7000012
  89.8600006 106.5100098  34.7800016  92.1700001 101.9700050  30.5700016
  91.6499996 101.7000008  29.4800019  92.8200054 101.0600090  31.3100004
  93.1000042 101.1400032  32.2700024  93.2500076  99.8000050  30.8700013
  92.9500008  99.6500015  29.8400021  94.8600006  99.8200035  31.1500025
  95.0900078  99.7100067  32.2300005  95.0800037 100.8600044  30.8400011
  95.6100082  98.8500023  30.3500009  95.6200027  97.5600052  30.8900023
  94.9500084  97.3100090  31.7100024  96.4600086  96.6200066  30.3000021
  96.5799999  95.6100082  30.6500006  97.1700001  96.8700027  29.0900016
  97.6300049  96.1200047  28.4600019  96.4000034  99.1700077  29.2100024
  96.5000057 100.1400089  28.7500024  97.1400070  98.1500053  28.5600019
  97.6900005  98.3400059  27.6500010  92.5699997  98.6500072  31.6900015
  92.6000023  98.6000061  32.9400015  92.0000076  97.6400089  31.0200024
  91.9900036  97.5100040  30.0300026  91.4700031  96.4700031  31.7000008
  91.3300037  96.7100048  32.7500010  90.0400066  96.0900021  31.1400008
  90.1100063  95.4700089  30.2200007  89.3300056  97.2400093  30.7700014
  88.5700035  96.8700027  30.3200006  89.2000008  95.3500080  32.1600008
  88.2100010  95.0600052  31.7400026  89.7500038  94.4300079  32.4200010
  89.2600060  96.0400009  33.0300021  92.3800087  95.3200054  31.5500021
  92.9000092  95.0700092  30.4900026  92.6700020  94.6600056  32.7000022
  92.3200035  94.9500084  33.5800028  93.4000015  93.4400082  32.7000022
  94.0200043  93.4400082  31.8200016  94.3500042  93.5400009  33.8800025
  94.9800014  92.6200008  33.8300014  93.7700081  93.5300064  34.8300028
  95.3200054  94.7800064  33.7200022  94.7800064  95.7400036  33.8600016
  95.8500004  94.8700047  32.7400017  96.5700054  94.7600079  34.7200012
  97.2700024  95.5200005  34.3300009  97.0200062  93.7500000  34.8400021
  96.1600018  95.1900005  36.0600019  95.1800060  95.1600075  36.2500024
  96.9200039  95.4300022  37.0900011  98.2300091  95.1900005  37.0900011
  98.6300087  95.0200081  36.1900020  98.7600040  95.3200054  37.9300022
  96.4300060  95.4300022  38.3300018  95.4500008  95.3000069  38.4600019
  97.0500088  95.1700020  39.0700030  92.5200081  92.1900082  32.7700019
  92.1000004  91.7400074  33.8100004  92.3200035  91.5100002  31.6200018
  92.7400017  91.8700027  30.7900023  91.5400028  90.2900028  31.5600014
  90.7500076  90.2500057  32.2900009  90.9100056  90.0200081  30.1800013
  91.7200089  89.8800087  29.4300008  90.0699997  88.7400055  30.1200008
  89.4500065  88.6000061  29.2000008  90.6800079  87.8200054  30.0200009
  89.3800068  88.8100052  30.9900022  90.0800037  91.2600040  29.6200013
  89.5700073  90.9700012  28.6700010  90.8600044  91.9900036  29.3000007
  89.0100002  91.9600010  30.5000019  88.6400032  92.8900051  30.0100017
  88.1800079  91.2500000  30.6800008  89.5900059  92.2000027  31.4200020
  92.3400021  89.1499996  31.9200015  93.2600021  88.8000011  31.1800003
  92.0200062  88.4899998  33.0500007  91.1800003  88.6000061  33.5900021
  92.9600048  87.5300026  33.6800027  93.9700031  87.7500057  33.3400011
  92.9600048  87.5600052  35.2100015  92.1100044  86.9200039  35.5300021
  93.1500053  88.5599995  35.6700015  94.2200089  86.8900013  35.7300019
  95.2300072  86.6900063  34.9900007  94.2800045  86.5100002  36.9900012
  93.8600063  87.0800018  37.7000022  94.9500084  85.8000088  37.1900010
  92.7400017  86.0800076  33.0600023  92.8500080  85.1200008  33.8200021
  92.6600075  85.9000015  31.7700005  92.6600075  86.6300011  31.1000013
  92.5100040  84.6400070  31.1600018  93.1300068  83.9500046  31.7000008
  91.0600090  84.0600014  31.1000013  90.8500004  83.5599995  32.0600009
  90.9300041  83.2900047  30.3000021  90.0200081  85.0300026  30.9600019
  89.4700050  84.6800041  30.2600026  93.2300091  84.7000027  29.7900009
  93.6200047  85.7700062  29.3900013  93.5400009  83.5599995  29.1900015
  93.1200027  82.7100086  29.5100021  94.5400047  83.3900070  28.1900024
  95.1500034  84.2600060  28.0000019  95.5500031  82.3200035  28.5800004
  95.0500011  81.3300037  28.5500002  95.8600044  82.5200081  29.9600005
  95.1800060  82.0300007  30.4300022  96.8600082  82.3500061  27.7000022
  97.6200008  81.5900040  27.9700017  96.5000057  82.0800018  26.6900015
  97.3200035  83.3600044  27.6700020  93.9200020  82.9500008  26.9100022
  93.1700039  82.0100021  26.9700003  94.2900085  83.5300064  25.7200003
  94.9700069  84.2700005  25.7300019  93.5100079  83.2700062  24.5100021
  93.0100060  82.3200035  24.4300008  92.3800087  84.4000053  24.3500018
  91.8500042  84.2600060  23.3900023  92.8500080  85.3999996  24.2700005
  91.4400005  84.2700005  25.4700017  91.5300083  85.1800060  26.6200018
  92.2600079  85.9500027  26.8000007  90.6000042  85.0900078  27.6200008
  90.5300045  85.7500076  28.4700012  89.6000004  84.1100025  27.4700022
  88.6700058  84.0600014  28.5500002  88.0700016  83.3800030  28.2300019
  90.3299999  83.4400082  25.3300023  90.3000069  82.7100086  24.5300007
  89.4300079  83.2999992  26.3800001  88.6300087  82.5800037  26.2700009
  94.4600010  83.5599995  23.2500005  95.4500008  84.2100048  23.3000016
  94.1700077  82.8700066  22.1300006  93.5200024  82.1200085  22.2500014
  94.8200035  83.1000042  20.8800006  95.8800030  82.9200077  20.9700012
  94.4200039  81.9900036  19.9300015  93.3100033  82.0300007  19.9700010
  94.6800041  81.0300064  20.4200006  94.8200035  82.2100067  18.4300005
  95.9300041  82.1600056  18.4900010  94.5600033  83.1300068  17.8700006
  94.2900085  81.1400032  17.4900007  93.1300068  81.3199997  16.9400012
  95.0100040  80.0900078  17.3000014  94.5300007  84.5400047  20.3700018
  93.4100056  85.0600052  20.5100012  95.5100060  85.1800060  19.7800004
  96.4100075  84.7600079  19.8700011  95.4800034  86.5700054  19.3900013
  94.4700050  86.8900013  19.1700006  96.0000038  87.5100040  20.5400014
  96.2100029  88.5599995  20.2100015  96.9600010  87.0900059  20.9200001
  94.5400047  87.7200031  21.7000008  94.2900085  86.4300060  21.5200019
  96.2600040  86.8000031  18.1000006  97.3800087  86.1400032  17.9500008
  95.7700062  87.6700020  17.1900010  94.8900032  88.1100082  17.3500013
  96.5799999  88.0800056  16.0200012  97.4800014  87.5000000  16.1800003
  95.8700085  87.7600002  14.6500003  95.3700066  86.7800045  14.8000002
  96.5400028  87.6400089  13.7800002  94.7800064  88.7300014  14.3300009
  93.9100075  89.0500069  15.1800013  94.6500015  89.1200066  13.1200004
  97.0200062  89.5200062  16.1000013  97.9900074  89.8400021  15.4500008
  96.5000057  90.4100037  17.0100009  95.6200027  90.1700020  17.4200010
  96.9500065  91.8000031  17.2100008  97.9600048  91.8300056  16.8400013
  96.2900066  92.9100037  16.4000010  96.7500019  93.9000034  16.6500008
  96.4100075  92.5900078  14.9400008  95.8500004  91.6700077  14.6600008
  96.0200024  93.5200024  14.4700003  97.4700069  92.4900055  14.6200001
  94.8100090  93.0800056  16.8700004  94.7500038  93.2500076  17.9700005
  94.4099998  93.9100075  16.2400007  94.2300034  92.1700001  16.6300011
  96.9400024  92.0900059  18.6900008  96.0700035  91.6200066  19.4600010
  97.9800034  92.8100014  19.1100013  98.6100006  93.1100082  18.3900011
  98.3200073  93.1300068  20.4500008  97.6100063  92.6700020  21.1199999
  99.6900082  92.5500011  20.8000016  99.7200012  92.4900055  21.9100022
 100.5700016  93.0500031  20.3400016  99.7800064  91.0400009  20.3600001
  99.2400074  89.9100018  21.1600018  98.5500050  90.1500034  21.9600010
  99.3800068  88.6200047  20.6800008  98.9300060  87.8100014  21.2400007
 100.0700092  88.4100056  19.4500005 100.1900005  87.4400043  18.9900005
 100.5900002  90.7299995  19.2600012 101.1500072  91.4700031  18.7100005
 100.6900024  89.4400024  18.7600005 101.2200069  89.2500019  17.8400004
  98.4200001  94.5900059  20.7000017  98.6100006  95.3700066  19.7700012
  98.1500053  95.0200081  21.9600010  97.8000069  94.4099998  22.6700020
  98.4300041  96.4000034  22.3800015  97.9000092  97.0400047  21.7000008
  97.9800034  96.7400074  23.8000011  98.6400032  96.1900043  24.5000005
  97.0800018  96.1200047  23.9400005  97.8000069  98.2400036  24.1300011
  96.6300011  98.8500023  23.6700010  95.8900070  98.3400059  23.0800009
  96.3300037 100.1200008  24.0900016  95.4100037 100.5900002  23.7600017
  97.3200035 100.9300041  24.7800016  97.0100021 101.8900013  25.1400018
  98.7600040  98.9700031  24.8500013  99.6700001  98.4700012  25.1600003
  98.5400009 100.3400040  25.1800013  99.2600060 101.0000038  25.6300020
  99.9500084  96.6800022  22.2100019 100.7600021  95.7900047  22.5200009
 100.4000092  97.8700066  21.8400002  99.5100021  98.8900089  21.2400007
  98.8500023  98.4900093  20.4500008  98.9100075  99.4300079  22.0100021
 101.7900085  98.2400036  21.9600010 102.3600006  97.6000023  21.3200021
 101.6100025  99.7000027  21.5700006 102.5200081 100.0800037  21.0500002
 101.4700031 100.3900051  22.4300003 100.4300022  99.8900032  20.6500006
 100.6800079  99.6800041  19.5900011  99.9200058 100.8700085  20.5900002
 102.4600029  98.1200027  23.3500004 101.8700027  97.9500008  24.4100022
 103.7600040  98.1500053  23.4500003 104.3000031  98.2000065  22.6200008
 104.4300079  97.9700089  24.7200012 103.8000011  97.3900032  25.3800011
 105.7400036  97.2100067  24.5800018 106.4400005  97.5600052  23.7800002
 105.4600048  96.1800003  24.2600012 106.6700077  97.1700001  25.8300018
 106.0700035  96.6700077  26.6200018 106.9800091  98.1700039  26.2100005
 107.9900074  96.4400005  25.7000017 108.6500072  96.6500092  24.6600008
 108.4500027  95.7400036  26.6600013 104.5800018  99.3700027  25.3600001
 105.2400017 100.3000069  24.8100019 103.9400005  99.6300030  26.5400004
 103.5000038  98.8400078  26.9700003 103.8900089 100.9700012  27.1700025
 103.7200069 101.7800045  26.4800024 102.7700043 100.9800053  28.2100010
 102.9100037 100.2100086  29.0000010 102.8800011 102.3900032  28.7800002
 102.0400047 102.6600075  29.4400024 103.7800026 102.7200031  29.3400025
 102.6400089 103.0600071  27.9300022 101.3200092 100.6200027  27.6500010
 101.5000057  99.7100067  27.0400023 100.9500027 101.3900089  26.9400024
 100.3000069 100.4200077  28.7700009  99.3400002 100.0400066  28.3500004
 100.6900024  99.6900082  29.5100021 100.0800037 101.3800049  29.2900014
 105.3600025 101.3800049  27.6500010 106.0900021 100.7000065  28.2600021
 105.8100033 102.6200008  27.2000003 105.1300049 103.2500076  26.8400002
 107.0500088 103.2100010  27.6800013 107.8500080 102.4900055  27.8000021
 107.6200008 104.3500042  26.7900014 106.8200016 105.1200008  26.7600012
 107.7500057 103.9100075  25.7700014 108.9700031 104.9300003  27.3200011
 109.5700073 104.3800068  28.2600021 109.4600010 105.9600067  26.5900016
 108.8700008 106.3200092  25.8700013 110.4500008 105.8800030  26.5200019
 106.6300011 103.7500095  29.0500021 105.8100033 104.6700096  29.2200017
 107.3900032 103.2500076  30.0500011 108.1000042 102.6000023  29.7800016
 107.0800018 103.5400009  31.4100003 106.0100079 103.6300087  31.5600014
 107.7500057 102.3300076  32.2400022 108.8200092 102.3400021  31.9200015
 107.2200012 101.4500046  31.8300009 107.5400066 102.4300003  33.7700009
 106.6700077 103.0600071  34.0400004 108.3400059 103.0800056  34.1900015
 107.6100063 101.1100006  34.5400023 106.5600014 100.4700089  34.6100020
 108.6800098 100.7700062  35.0900006 107.7200031 104.8300076  31.8700004
 107.4600029 105.5100060  32.8600025 108.5900021 105.3800011  31.0200024
 108.6500072 104.9900055  30.1100016 109.0800095 106.6900063  31.1500025
 109.4400024 106.8300056  32.1600008 110.2400017 106.9900036  30.1800013
 110.5100060 108.0500031  30.3800011 110.0300026 106.9700050  29.0900016
 111.4200020 106.0000038  30.4100013 111.5000057 105.1500034  31.3100004
 112.5200081 106.1500072  29.6100020 112.5400066 106.8600082  28.9100003
 113.2400036 105.4600048  29.7400022 108.0300045 107.7200031  30.8400011
 108.0800056 108.8600063  31.3600016 107.0300007 107.3400021  30.0400019
 106.9300079 106.4300060  29.6400023 106.0500050 108.3300018  29.4600010
 106.5900040 109.2600060  29.3700004 105.7900047 108.0300045  27.8800011
 104.8800087 108.6400032  27.6800013 105.4800034 106.9700050  27.8100014
 106.9200039 108.4100056  26.9400024 107.8100014 107.9200077  27.4000025
 107.0800018 109.5000076  26.9000006 106.7200089 107.9000092  25.5300021
 107.4700069 106.9400024  25.1200008 105.8500004 108.4000015  24.8800015
 104.7400093 108.3900070  30.2500010 104.2000008 109.4500065  30.5400014
 104.3900013 107.1800041  30.7100010 104.9400043 106.3700008  30.5100012
 103.1500053 106.9900036  31.5000010 102.7100086 107.9200077  31.8000007
 101.9100094 106.3000011  30.7000017 100.9000015 106.3000011  31.1600018
 102.2100067 105.2400017  30.5900025 101.6400051 106.8100071  29.3000007
 100.5300045 107.6200008  29.0700006  99.9600029 107.9600048  29.9200010
 100.3300095 108.2400036  27.7800012  99.5300007 108.9700031  27.7700019
 101.2100029 107.9500008  26.8100023 101.1400032 108.7100029  25.6300020
 101.7200089 108.2600021  25.0200009 102.3500061 106.3100052  28.1900024
 103.1400013 105.6100082  28.4000015 102.2100067 106.9300079  26.9300008
 102.9100037 106.7800045  26.1200023 103.2700062 106.1200047  32.7500010
 103.7300014 104.9600029  32.6700020 102.9300022 106.6200066  33.9500022
 102.6300049 107.5700092  34.0000010 102.9800034 105.8500004  35.1500010
 103.6200047 104.9800014  35.0300026 103.4700012 106.6000080  36.4000010
 103.1600094 106.0900021  37.3400021 102.8900051 107.5500011  36.4400029
 105.0500011 106.7700005  36.3400006 105.3100014 107.4600029  35.5100012
 105.5700016 105.8000088  36.2200022 105.5700016 107.4900055  37.5500011
 105.3500080 108.6700058  37.8300023 106.2100029 106.6800022  38.4100008
 106.4100075 105.7500076  38.1200027 106.6700077 107.1800041  39.1500020
 101.5800095 105.3200054  35.2300024 100.5800056 105.9300041  34.8000026
 101.4100075 104.1800022  35.9500027 102.2300053 103.6800003  36.2300014
 100.0900078 103.8200092  36.6200018  99.3700027 103.9000034  35.8200026
 100.1800060 102.3400021  37.1900010 101.0000038 102.3600006  37.9400015
  98.8100052 101.9400024  37.8500009  98.8000011 100.8500004  38.1000018
  98.5100079 102.5800037  38.7000012  98.0100060 102.0200062  37.0900011
 100.4000092 101.2000084  36.1000013 100.9500027 101.6300011  35.2300024
  99.4000053 100.9800053  35.6700015 101.1200047  99.9400043  36.5000010
 100.6000042  99.5400047  37.4000025 101.0300064  99.1700077  35.7000017
 102.1800041 100.1100063  36.7700028  99.7900009 104.7200012  37.7200007
 100.6700039 104.8200035  38.6100030  98.5300064 105.2300072  37.8500009
  97.9000092 105.1100063  37.0900011  98.1600094 106.1100006  39.0100026
  99.0100002 106.2700081  39.6600008  97.6100063 107.3400021  38.4100008
  97.1900082 108.0600071  39.1500020  98.9000034 108.1500053  37.9600024
  98.7300014 109.2000008  37.6400018  99.6300030 108.2100010  38.8000011
  99.3000031 107.5200081  37.1300006  96.6400051 107.1600056  37.3000026
  96.0800076 106.2300014  37.5300026  97.2200012 107.1100044  36.3500023
  95.5900002 108.3500004  37.2300029  96.1600018 109.2500019  37.5400019
  95.1700020 108.4900093  36.2200022  94.7100067 108.1300068  37.8700018
  97.0500088 105.5500031  39.8300028  96.7000008 106.0400009  40.9200001
  96.3500023 104.5100021  39.3200016  96.6900063 104.0200043  38.5200024
  95.1700020 104.0500069  40.0800037  95.2100086 104.1300011  41.1500025
  93.9500046 104.9200058  39.5700026  93.0000019 104.5600033  40.0200033
  93.9900017 104.7600079  38.4700012  94.1300011 106.2900066  39.8800015
  95.0800037 106.3800049  39.8100019  95.0100040 102.6400089  39.6600008
  95.3299999 102.3800087  38.5100007  94.3900013 101.8200016  40.4900026
  94.1100025 102.1100044  41.4100027  93.8600063 100.4900074  40.0600004
  93.8600063 100.4600048  38.9800024  94.7600079  99.2700005  40.4300022
  94.4300079  98.3300018  39.9400020  96.1900043  99.5800018  39.8400021
  96.0400009 100.0100040  38.8200021  96.6600037 100.3800011  40.4600000
  96.7600060  98.6300087  39.8000026  94.8700047  99.0000057  41.9900036
  93.8300037  98.7600040  42.2900009  95.5600071  98.1600094  42.1900034
  95.4100037  99.8800087  42.4000025  92.5100040 100.3800011  40.7500029
  92.1500015 101.1000061  41.6700029  91.6000080  99.5900059  40.2100039
  91.7900085  98.9800072  39.4400024  90.3200054  99.2700005  40.8100033
  90.0100040 100.0100040  41.5400028  89.2600060  98.9200020  39.7400022
  89.3600082  99.6800041  38.9400029  88.2100010  98.8900089  40.1000023
  89.5500088  97.6800060  39.1300011  89.1400051  97.0100021  39.6700025
  90.3400040  98.0600071  41.7300034  91.3600063  97.4200058  41.9099998
  89.1800022  97.8299999  42.3500013  88.4500027  98.5000038  42.3500013
  88.7000084  96.5600014  42.9900026  89.5500088  96.4000034  43.6300039
  87.4100018  96.8800068  43.7200022  86.6400051  97.3000050  43.0299997
  87.7500057  97.6900005  44.4099998  86.9200039  95.7600021  44.5700026
  87.6400089  94.8300076  44.9900007  85.7700062  95.8900070  45.0300026
  88.6300087  95.4700089  41.9500017  88.4899998  95.7800007  40.7000017
  88.8400078  94.2400074  42.3400021  88.8600063  94.0600014  43.3200026
  88.9600086  93.0400085  41.3800001  89.2800045  93.4300041  40.4300022
  90.0500011  92.0400047  41.9300032  89.7200012  91.7500019  42.9500008
  90.2900028  90.7800007  41.1300039  90.7600021  90.9700012  40.1400042
  90.9100056  90.0500011  41.6800022  89.3200016  90.3100014  40.8400011
  91.4200020  92.7900028  42.0500040  91.6499996  93.2100010  41.0400009
  91.3800049  93.6900043  42.6999998  92.0800018  92.0300007  42.5200033
  87.6500034  92.4200058  41.2100029  86.8400002  92.3300076  42.1600008
  87.3099995  92.0000076  40.0000000  88.0400085  91.9500065  39.3100023
  85.9600067  91.5700054  39.7500014  85.3600025  91.4400005  40.6400013
  85.3100014  92.5699997  38.7900019  84.2500019  92.3000050  38.6000013
  85.9500027  92.6800060  37.8800011  85.1399994  93.9300060  39.4800019
  85.8300018  95.0000000  38.9500022  86.4200020  94.8200035  38.0700016
  85.6100082  96.2700081  39.4700027  86.1100006  97.1400070  39.0600014
  84.8500061  96.4800072  40.6100035  84.5900059  97.8600025  41.0500002
  85.3400040  98.3200073  40.6599998  84.2900085  94.1500092  40.5800009
  83.9000034  93.2600021  41.0500002  84.1600037  95.3500080  41.1600018
  83.5500050  95.5100060  42.0400000  85.9899998  90.2600002  39.0500021
  87.0000076  89.9200058  38.5000014  84.9000072  89.5700073  39.0100026
  84.0500069  89.8900032  39.4400024  84.8200035  88.3700085  38.1500030
  85.7500076  88.2600021  37.6200008  84.4799995  87.1500015  38.9300013
  83.7800026  87.3700047  39.7600007  85.6700039  86.6700077  39.5400023
  86.1400032  87.3800087  39.9900007  83.9000034  86.0200024  38.0700016
  84.6700001  85.7900047  37.3000026  83.7000084  85.1600075  38.7400007
  82.9500008  86.3199997  37.5800014  83.6300087  88.6500072  37.1500015
  82.5400066  89.1100025  37.6000023  83.8500023  88.4800053  35.8300018
  84.7200012  88.2299995  35.4100013  82.7600002  88.6000061  34.8600006
  81.7900085  88.4200001  35.2900028  82.6800060  89.9900055  34.2300010
  83.6000061  90.1300049  33.6200023  82.8299999  90.8100033  34.9700022
  81.4400005  90.0500011  33.5900021  80.8300018  89.9300003  34.3100023
  82.9600048  87.5000000  33.8100004  84.1000080  87.2800064  33.3900023
  81.8900013  86.7900085  33.5100007  81.0100079  87.0100021  33.9300013
  81.7700005  85.6100082  32.6500010  80.7900047  85.1800060  32.7700019
  82.0200062  86.1800003  31.2000012  82.1900082  85.3500080  30.4900026
  82.9200077  86.8100071  31.0700011  80.7800007  86.9300079  30.6500006
  80.2400017  86.5500069  29.6000004  80.3000069  88.0400085  31.2400007
  80.6100082  88.2700062  32.1700025  79.7100019  88.6300087  30.7000017
  82.7300072  84.4099998  33.0400014  83.1900024  83.7000084  32.1300006
  83.0900002  84.3300056  34.3700027  82.5699997  84.9000072  35.0000024
  84.0200043  83.3100033  34.9200010  83.9000034  83.5000038  35.9800029
  83.6100006  81.8900013  34.4600010  84.0799999  81.6499996  33.4800005
  82.5100040  81.9000053  34.3600011  83.9800072  80.6200027  35.3100014
  84.8700047  79.7700024  35.0300026  83.0700016  80.4699993  36.3000011
  82.4900055  81.2700081  36.4500022  83.1500053  79.7300053  36.9700027
  85.5100060  83.5100079  34.8200011  86.3500023  82.6200008  35.0300026
  86.0100079  84.7700024  34.7200012  85.2700043  85.4400063  34.6000028
  87.4100018  85.1600075  34.7200012  87.9900074  84.4000053  35.2100015
  88.0500031  85.6100082  33.3800006  87.8600025  84.8500061  32.6000023
  89.4300079  85.7400036  33.4900022  89.8100090  85.5900002  32.6200008
  87.4600029  86.8400002  32.6800013  87.6900005  86.8400002  31.5900016
  86.3500023  86.7900085  32.7700019  87.7300072  87.8100014  33.1500006
  87.4300003  86.4200020  35.6200027  86.4400005  87.1700001  35.7900023
  88.6100006  86.7400074  36.1900020  89.4099998  86.1700058  36.0200024
  88.9300060  87.8800011  36.9500017  88.0200005  88.2299995  37.4200010
  89.9400043  87.6300049  38.1500030  90.5700016  88.5300064  38.2800007
  90.7600021  86.4900017  37.9600024  91.5300083  86.7000008  38.4800029
  89.1400051  87.3700047  39.3800020  88.5100079  86.4700031  39.2200017
  89.9000072  87.1700001  40.1700020  88.5400009  88.2299995  39.7200012
  89.4200039  89.0700054  36.0500026  90.1600075  88.7200069  35.0900006
  89.2300034  90.3500080  36.4200020  88.6900043  90.5300045  37.2400022
  89.7700024  91.5000057  35.8200026  90.8100033  91.3400078  35.6100011
  89.0900040  91.8200016  34.4500017  89.3300056  90.9700012  33.7800026
  89.6800041  92.6900005  34.0800023  87.5699997  92.2000027  34.3700027
  87.2600079  92.3000050  33.3000016  86.5500069  91.2900066  35.0900006
  86.6900063  91.2600040  36.1900020  85.5100060  91.6499996  34.9400020
  86.5700054  90.2500057  34.7000027  87.4000072  93.6100006  34.9000025
  87.2700024  93.5900021  36.0100007  88.0900002  94.3900013  34.5300007
  86.3700008  93.9700031  34.6700025  89.7800064  92.6200008  36.8400025
  89.1700077  92.6500034  37.8800011  90.5900002  93.6200047  36.4700007
  90.9700012  93.7000084  35.5500007  90.5000019  94.8700047  37.1800017
  89.5200062  95.0800037  37.5800014  91.5300083  94.8500061  38.4000015
  91.3700008  93.9300060  38.9900017  91.2400055  95.7800007  38.9400029
  92.9400063  94.8800087  37.9200029  93.3600044  95.1200008  36.7800021
  93.7400055  94.5800018  38.8100028  90.7900047  95.9100056  36.0800028
  91.0900021  95.5900002  34.9200010  90.5800056  97.2400093  36.4400029
  90.5100060  97.4400043  37.4200010  90.5800056  98.4100056  35.6000018
  90.8700085  98.1800079  34.5800018  89.1300011  99.1000080  35.7600021
  89.0500069 100.1100063  35.2900028  88.8600063  99.1400051  36.8400025
  88.0300045  98.1800079  35.1900005  87.8800011  98.1500053  33.8100004
  88.6200047  98.6900043  33.2500005  86.8200016  97.4600029  33.2100010
  86.8200016  97.3800087  32.1300006  85.9500027  96.7900085  33.9700007
  85.1200008  96.3000011  33.4800005  87.1500015  97.4400043  36.0300016
  87.3099995  97.4700069  37.1000028  86.1200047  96.7700005  35.3600025
  85.4699993  96.2200069  36.0200024  91.6900063  99.2500019  36.2400007
  91.5600014  99.6400070  37.3600006  92.7900028  99.4500065  35.4900026
  92.9800034  98.8900089  34.6800017  93.9100075 100.3500080  35.8900023
  93.6800003 100.6900024  36.8900013  95.2400017  99.6400070  36.1100006
  95.9600067 100.2600002  36.7000008  95.0100040  98.4300041  37.0400023
  95.9600067  98.0100060  37.4300027  94.4300079  98.7300014  37.9300022
  94.4900036  97.6700020  36.4100027  95.8600044  99.2100048  34.7200012
  95.7600021 100.0700092  34.0300012  95.4100037  98.3100033  34.2500019
  97.2800064  98.7900066  34.9800014  97.9100037  99.5600033  35.4700017
  97.3500061  97.9600048  35.7100010  97.7600002  98.4000015  34.0600014
  93.9900017 101.6000080  35.0600028  93.4800053 101.6100025  33.9700007
  94.7000027 102.6000023  35.5500007  95.2400017 102.4500084  36.3700008
  94.8000050 103.8500023  34.8500013  94.5300007 103.7000084  33.8100004
  93.8700008 104.9800014  35.3700018  94.2100048 105.4200077  36.3300014
  93.8800049 106.1200047  34.3300009  93.6000061 105.7700062  33.3100009
  93.1000042 106.8800068  34.5500016  94.8500061 106.6100025  34.1100025
  92.4400043 104.5400047  35.7000017  92.3900032 103.5400009  36.1800027
  91.8700027 104.2100048  34.8000026  91.6700077 105.4100037  36.7700028
  91.5300083 106.4800072  36.5200019  90.6900024 104.9100018  36.8400025
  92.2300053 105.3600025  37.7300024  96.2200069 104.2300034  34.8200011
  96.8600082 104.3300056  35.8700013  96.7700005 104.4700050  33.6200023
  96.1200047 104.5700073  32.8700018  98.1200027 105.1500034  33.4200025
  98.6800003 105.0000095  34.3300009  98.8100052 104.5900059  32.1800017
  99.7600079 105.1600075  32.1000004  98.1700039 104.7800064  31.2900019
  99.1400051 103.1300068  32.2500014  98.2200050 102.1200085  31.9700027
  97.1900082 102.4500084  31.9600010  98.5600090 100.8100033  32.1100020
  97.9400063  99.9500084  31.9200015  99.9300003 100.4500008  32.2700024
 100.2500057  99.1600037  32.4700022 100.9200001  99.1600037  33.1600022
 100.5300045 102.8500080  32.4500012 101.2200069 103.6600018  32.5900006
 100.9000015 101.5100002  32.3900008 101.8600082 101.2400055  32.8000021
  97.8200054 106.6700077  33.1900024  96.8000031 106.9800091  32.5300026
  98.6900043 107.6400089  33.6000013  99.5600033 107.4100018  34.0200019
  98.3500004 109.0300083  33.5100007  97.7800083 109.3400097  32.6500010
  97.4400043 109.4500065  34.7500014  97.8400040 109.0700054  35.7100010
  96.3700008 109.1700077  34.6300006  97.3800087 111.0300064  35.0900006
  96.9400024 111.6600037  34.2800021  98.4300041 111.3400078  35.2200007
  96.6100025 111.4200020  36.3400006  95.6300068 110.8900070  36.3500023
  97.1300030 110.9000015  37.1600008  96.5400028 112.9500008  36.5800023
  95.9500027 113.4000015  35.7600021  97.5900078 113.3200073  36.6400027
  95.9200001 113.3300018  37.8900027  95.8800030 114.3700027  37.8600025
  94.9200058 113.0500031  37.9100013  96.2800026 112.9000092  38.7700009
  99.5500088 109.9500084  33.4300017 100.6200027 109.5100021  33.9000010
  99.4200039 111.1300087  32.8000021  98.5400009 111.2500095  32.3600006
 100.2400017 112.3200035  32.9500008 101.1700058 112.0400047  33.4100008
 100.3800011 112.9100037  31.5100026 100.9100056 113.8800049  31.6400003
  99.3800068 113.1400013  31.0900021 101.1200047 111.9600010  30.5300021
 100.5900002 110.9900093  30.6700015 102.2100067 111.8900013  30.7200003
 100.9200001 112.2900009  29.0300012  99.8700047 112.0800018  28.7300014
 101.0000038 113.4000015  29.0400004 101.9400024 111.5400028  28.1400013
 102.0000076 110.4400063  28.3200002 102.9200077 112.0700073  28.1700015
 101.5300083 111.6500092  26.6700006 100.5200005 111.4000034  26.6000009
 101.6800022 112.6000023  26.2600017 102.1300030 110.9900093  26.1500001
  99.5100021 113.3700085  34.0000010  98.3100033 113.6800098  33.9800024
 100.3100014 113.8300037  34.9800014 101.2800026 113.6600018  34.8500013
  99.9900055 114.4900036  36.2600017  99.6200085 113.7000084  36.9000006
 101.3300037 114.8000050  36.9900012 101.2100029 115.1400089  38.0400014
 102.1100044 115.7100010  36.2700009 101.6700077 116.5600014  36.1700010
 102.1700096 113.4800053  37.0900011 101.5000057 112.7800083  37.6300025
 102.5900078 113.0200100  36.1700010 103.1100082 113.6000061  37.6700020
  99.1200066 115.7000065  36.6100025  98.7300014 116.5300083  35.7500029
  98.7900066 115.8200073  37.9000020  99.1200066 115.1300049  38.5400009
  98.2400036 117.0600033  38.5800028  97.8600025 117.7300072  37.8300023
  99.2700005 117.6400089  39.5700026  99.6600056 116.8500042  40.2400017
  98.8000011 118.3700085  40.2500010 100.2800083 118.3900070  38.7600017
 100.2000046 118.3900070  37.5200009 101.4300060 118.8500023  39.2800021
 101.7300034 118.6300087  40.2100039 102.0800018 119.3000031  38.6600018
  96.9400024 116.6500092  39.3900013  96.6200066 115.4400063  39.3600011
  96.0400009 117.4400043  40.0600004  95.2200031 116.8800068  40.1000023
  95.8600044 118.7900066  40.6900024  96.7200089 118.9200020  41.3300037
  95.8700085 119.9100018  39.5900011  95.0600052 120.6400013  39.8200011
  95.6800079 119.4600010  38.5900021  97.1600056 120.7000065  39.4800019
  97.9100037 120.9000015  40.4200029  97.4900055 121.1200047  38.2500029
  96.7600060 121.1400032  37.5700021  98.2700062 121.7400074  38.2000017
  94.5700073 118.8800049  41.5200043  93.6600018 118.0900097  41.2600040
  94.2800045 119.9300098  42.3600006  95.0600052 120.5400085  42.4400043
  92.8800011 120.2000046  42.9100037  92.4300003 119.2300034  43.0800009
  92.0900059 120.9800053  41.8200016  92.5100040 122.0000076  41.7200041
  92.1800041 120.4600048  40.8400011  90.5900002 121.0600090  42.0500040
  90.0100040 121.9700050  41.4499998  89.9600029 120.2600098  42.8000021
  92.8100014 120.9700012  44.3000031  93.7300014 121.0200024  45.1100016
  91.6300011 121.6200066  44.6200037  90.8700085 121.5500069  43.9800024
  91.4100075 122.3800087  45.8800030  92.1900082 122.0700073  46.5700006
  91.7900085   0.3200000  45.6300020  92.0300007   0.7500000  46.6200018
  92.7000046   0.3600000  45.0100040  90.7000065   1.1900000  45.0300026
  89.8000050   0.6300000  44.3500042  90.9100056   2.4400002  45.1500034
  90.1300049 122.1900082  46.6800022  89.3800068 121.2300014  46.4000034
  89.8200035 123.1500053  47.6200008  90.5800056   0.1900000  47.7900028
  88.6100006   0.0300000  48.2700014  88.8500023   1.0300001  48.5800028
  87.5200081   0.4000000  47.3200035  86.7700005 123.1900024  47.1400023
  87.8600025   0.3900000  46.2600040  86.7100048   1.7000000  47.6500034
  86.3400078   2.2300000  46.7500019  87.3200035   2.4700001  48.1700039
  85.5000019   1.4600001  48.5000038  85.3200054   2.2100002  49.4600010
  84.6100044   0.6200000  48.1000042  88.0300045 122.9400063  49.5300007
  88.4000015 121.8600082  49.9700022  87.2000027   0.1700000  50.2900028
  86.9300079   1.0300001  49.8700047  86.3300037 123.3700085  51.4800024
  85.9800053   0.7200000  51.9100046  85.0000000 122.6000023  51.2300014
  85.3900051 121.6800022  50.7600021  84.3600082 123.2200050  50.5500031
  84.1499996 122.3900032  52.4700022  84.0500069 123.3500099  53.0100012
  84.6500015 121.6500092  53.1400013  82.7100086 121.8300056  52.2000027
  82.2399998 121.8100071  51.0800028  82.1100044 121.4600086  53.2900047
  86.9900036 122.6900101  52.7400017  86.9500065 121.4800072  53.0000019
  87.8400040 123.3800030  53.5600042  88.1000042   0.7200000  53.2700014
  88.5300064 122.8900051  54.7000027  88.0200005 121.9700050  54.9700022
  90.0100040 122.5200081  54.3200016  90.5700016 122.2000027  55.2200031
  90.3700066 123.4600067  53.8500023  90.1000023 121.2900066  53.3300018
  89.5100021 121.5600014  52.4300003  89.8000050 120.4000092  53.9100027
  91.5000057 121.0100079  52.8600025  92.0300007 119.8600101  52.9900026
  92.1600056 121.9400024  52.3000002  88.4899998   0.1200000  55.9700012
  88.8700008 123.1600094  57.0200014  87.9900074   1.3800001  56.0400009
  87.7500057   1.7800000  55.1600027  88.0200005   2.1800001  57.2600031
  89.0799999   2.2800002  57.4400043  87.4400043   3.6400002  57.0300007
  87.1100044   4.1800001  57.9500008  86.5600014   3.5700002  56.3600016
  88.3700085   4.7400004  56.5200043  89.5700073   4.4900003  56.0700035
  87.9300022   5.9200001  56.6300011  87.4800014   1.5400001  58.5700035
  88.1900024   1.5300001  59.5700026  86.2100029   0.9400000  58.5800028
  85.7100010   0.9700000  57.7100039  85.7299995   0.1800000  59.7800016
  85.9700012   0.7000000  60.7000017  84.2199993 123.4300041  59.5900011
  83.9000034 122.7400017  60.4100037  84.0799999 123.0200100  58.5700035
  83.2100010   0.9500001  59.8500013  83.5300064   2.0200001  60.4000044
  82.0300007   0.7200000  59.4500017  86.5000057 122.5100040  60.0400019
  86.6100025 122.0400047  61.1600018  87.0100021 121.8300056  59.0000010
  86.7900085 122.0900059  58.0600023  87.7600002 120.6300068  59.0500021
  87.2600079 119.9400043  59.7200012  87.7500057 120.0100040  57.6500034
  88.1700039 120.7200050  56.9000006  86.6900063 119.8000050  57.3800039
  88.5900021 118.7800026  57.5600004  88.2200050 117.5500011  58.2300043
  87.2200012 117.4300098  58.6200047  89.1600037 116.4400101  58.1800032
  88.7600040 115.5400085  58.6000013  90.4300022 116.5800095  57.5300026
  91.1800003 115.8100033  57.5000048  89.9000072 118.8700104  57.0000029
  90.2200031 119.7900105  56.5300035  90.7900047 117.8100014  57.0200014
  91.7400074 117.9600048  56.5300035  89.1800022 121.0000038  59.6300030
  89.6600056 120.3900051  60.5600023  89.8000050 122.1300030  59.2400026
  89.2900085 122.7400017  58.6400032  91.1000061 122.6000023  59.8300028
  91.7600060 121.7700100  59.6500015  91.5600014   0.2700000  59.0800047
  90.7800007   1.0200001  58.8100004  92.6600075   1.1300001  59.8500013
  93.6100006   0.5600000  59.9100018  92.9800034   2.0300001  59.2800045
  92.2000027   1.4100000  60.8200026  92.2600079 123.3800030  57.7300024
  91.5900040 122.6800060  57.1900034  92.5600052   0.6500001  57.0800018
  93.1300068 122.7600098  58.0200005  90.9500027 122.8100014  61.3100052
  91.8000031 122.2700024  62.0400047  89.8500061 123.4000015  61.8200016
  89.3100071   0.2500000  61.1000013  89.4600010 123.5400105  63.2500029
  90.3100014   0.5100000  63.6300039  88.1800079   0.8100000  63.3900023
  88.1300068   1.0100000  64.4800043  87.3600006   0.1500000  63.0400038
  88.1800079   2.0800000  62.7000046  89.4099998   2.7800003  62.5600052
  90.3500080   2.4200001  62.9500008  89.4700050   4.0600002  61.9400024
  90.4500008   4.5100003  61.9000006  88.3300018   4.6100003  61.3000011
  88.4200001   5.9200001  60.7400036  89.3400002   6.0600001  60.4800034
  87.0500088   2.7100003  62.1600008  86.0900021   2.2200002  62.1500015
  87.1100044   3.8900003  61.4300013  86.2000084   4.2200002  60.9400034
  89.4700050 122.2000027  64.0200043  90.1900005 122.0700073  64.9600029
  88.8700008 121.1600018  63.4300041  88.3300018 121.2800026  62.6000023
  88.7900066 119.8600101  64.0300035  88.7500000 119.9100018  65.1100016
  87.5100040 119.0700054  63.4400034  87.5800037 118.0200100  63.7900019
  87.5300026 119.0800095  62.3300028  86.1200047 119.5800018  63.8600016
  86.0100079 120.3900051  65.0600052  86.8400002 120.8300018  65.5900049
  84.7000027 120.7500076  65.4400015  84.6400070 121.3400078  66.3500023
  83.6000061 120.2500057  64.7500038  82.6100063 120.5900097  65.0300026
  85.0200081 119.0700054  63.2100010  85.1700020 118.4400082  62.3400021
  83.7300014 119.3800068  63.6700010  82.9400063 118.9100075  63.1100035
  90.0300026 118.9700031  63.7900019  90.0600052 117.8700066  64.3000031
  91.0900021 119.4700050  63.1500053  91.0100079 120.3300095  62.6500034
  92.3800087 118.8600063  63.0200052  92.5000000 118.0300045  63.7000036
  92.8299999 118.7200069  61.5100050  93.9200020 118.5600090  61.4300013
  92.5800037 119.6300030  60.9200048  92.0500088 117.5800037  61.0200024
  92.3500061 116.3600063  61.1600018  90.9500027 117.8900051  60.3100014
  90.4900074 118.7700081  60.4800034  90.5000019 117.1600056  59.8000050
  93.4400082 119.7400093  63.7400007  94.6100044 119.7000027  63.4100008
  93.0200005 120.6300068  64.6100044  92.0800018 120.8500099  64.8500013
  93.9800072 121.3200092  65.4000044  94.6400070 121.9100094  64.7700024
  93.3200073 122.2200012  66.3300037  92.5100040 122.7700043  65.8100033
  94.0900040 122.9300022  66.7200041  92.5200081 121.6200066  67.5300026
  91.4400005 120.7500076  67.4000025  91.1600018 120.3700066  66.4200020
  90.8000088 120.3200054  68.5400009  90.0600052 119.5300102  68.4700012
  91.1400032 120.8600044  69.7700024  90.5300045 120.6500053  70.6400013
  92.8700066 122.1900082  68.7400055  93.7200069 122.8700066  68.7000036
  92.2300053 121.7400074  69.8700047  92.7000046 122.0300102  70.8000040
  94.9600029 120.4600048  66.1900043  96.1100006 120.8400059  66.3900042
  94.6000004 119.2800045  66.6600037  93.7600040 118.8000011  66.4400053
  95.3200054 118.6600018  67.6100016  96.2200069 119.2200089  67.8500032
  94.5200062 118.5100079  68.9100027  93.6700058 117.8600025  68.5800028
  94.0400028 119.4800091  69.1500044  95.3200054 117.9700089  70.1300049
  95.9200001 118.7100029  70.9000015  95.1300049 116.6200066  70.4000044
  94.6400070 116.0300064  69.7600031  95.5500031 116.2700081  71.2400055
  95.9700012 117.3500061  67.0900011  95.4900074 116.2700081  67.3600054
  96.9300079 117.4900055  66.1800051  97.1900082 118.4400082  66.0200024
  97.6500034 116.3800049  65.4900026  97.4200058 115.4500008  66.0000038
  97.3000050 116.2800026  63.9200020  98.0000019 115.5100060  63.5500050
  97.6800060 117.0800018  63.2500029  95.8700085 115.8300018  63.6300039
  95.5200005 115.9700012  62.5900030  95.1600075 116.4000034  64.2700052
  95.6200027 114.3500042  63.9800024  96.1700058 113.6300087  63.3300018
  96.0300064 114.2900085  65.0100040  94.1400051 113.8700008  63.8700008
  93.8500023 113.7200069  62.8100014  93.5000038 114.6800041  64.2900038
  93.8700008 112.5900078  64.5700026  94.5600033 112.4200058  65.3300047
  92.8700066 112.5500011  64.8600054  94.0200043 111.8700027  63.8300037
  99.1200066 116.6800022  65.6800032  99.6200085 117.7900028  65.7600021
  99.8600006 115.6100082  65.7300043  99.3100071 114.7900009  65.5900049
 101.4000034 115.6200027  65.6700039 101.7200089 116.2400055  66.5000010
 102.0100021 114.2100048  65.9000015 103.0100060 114.0400028  65.4400015
 101.3200092 113.4300041  65.5100012 102.4200058 113.8900089  67.4000025
 103.0700016 114.6700096  67.8700018 103.0400085 112.9700089  67.3900032
 101.2700081 113.6700058  68.3500051 101.2700081 114.1800022  69.4400024
 100.4600048 112.8600025  67.9300022 101.9100094 116.2900066  64.4300032
 101.3600063 116.1700058  63.3500051 103.0400085 117.0700073  64.6000051
 103.4500027 117.1900082  65.5000019 103.8900089 117.4000072  63.3900023
 103.2800007 117.8800011  62.6200008 105.0500011 118.4500027  63.7900019
 105.7300091 118.0400085  64.5700026 104.5400047 119.4100094  64.0300035
 105.9400082 118.8300037  62.5600052 105.5100060 119.3900013  61.7000008
 106.4900017 117.9600048  62.1300030 107.0600033 119.7200012  63.0600023
 107.5100040 120.2400017  62.1800041 106.7200089 120.5000019  63.7800026
 108.1800079 119.1000080  63.8300037 108.4500027 118.1300068  63.3700037
 107.9100037 118.9900017  64.9000025 109.3800068 119.9700069  63.7700033
 109.6900082 120.2100086  62.8100014 109.1700077 120.8900070  64.2000008
 110.1800060 119.4800091  64.2300034 104.4900036 116.1600018  62.7100039
 104.3000031 115.8500099  61.5700006 105.0900078 115.2900028  63.5600042
 105.0200081 115.4900074  64.5300007 105.9100056 114.2000008  63.1300020
 106.0000038 114.2500019  62.0500040 107.3100090 114.3700027  63.6100054
 107.3300076 114.4500065  64.7200012 107.5900078 115.3400040  63.1600046
 108.2800007 113.2300091  63.2300043 108.3200073 113.1600094  62.1200037
 107.9900074 112.2600079  63.7000036 109.6200085 113.5800076  63.8000011
 110.2900028 112.5900078  64.2700052 109.9700069 114.8100090  63.9700031
 105.4000092 112.7900028  63.5300016 105.1800060 112.5200081  64.7700024
 105.1900005 111.8800068  62.6400042 105.4700089 112.0900059  61.7000008
 104.7800064 110.5700016  62.8200006 103.9600086 110.6400013  63.5200024
 104.2100048 109.9500084  61.6300011 104.2500019 108.8400078  61.5700006
 104.7300053 110.3200054  60.7200050 102.7200031 110.2400017  61.5000010
 102.5200081 111.3300037  61.6200018 102.1100044 109.6100044  62.1700048
 102.1900082 109.8600006  60.1200008 102.2900009 110.6800079  59.2000008
 101.6300011 108.7400055  60.0300026 105.9500027 109.7800064  63.3700037
 107.1100044 109.9100018  62.9800034 105.7400036 108.9000034  64.3700027
 104.8000050 108.7900066  64.6800041 106.8300056 108.4500027  65.2700043
 107.3100090 109.3700027  65.5700016 106.1700058 107.6200008  66.3700008
 105.5900097 108.3200073  66.9900036 106.8400097 107.3000050  67.1900034
 105.2200031 106.5000057  65.8900023 105.8600044 105.7800007  65.3400040
 104.4500065 106.9400024  65.2200031 104.4100094 105.7900047  67.0300055
 104.0500069 106.6500092  67.6400042 103.5700035 105.1700020  66.6400051
 105.1500034 104.8200035  67.9700041 105.8400059 104.1400051  67.4300051
 104.4400024 104.2000008  68.5500050 105.9800053 105.6400013  68.9200020
 106.8400097 105.9500027  68.4200048 105.5400085 106.5300083  69.2000055
 106.1700058 105.1400089  69.8200035 107.9500008 107.5800037  64.6500015
 109.0900040 107.5400066  65.1300049 107.8000069 106.8700027  63.4900045
 106.8800068 106.7300034  63.1300020 108.8700008 106.1400032  62.8000021
 109.7100067 106.0500050  63.4700012 108.4100056 104.7200012  62.4700022
 109.1500092 104.3000031  61.7600012 107.4700069 104.7600079  61.8900013
 108.1400013 103.8500023  63.7000036 108.0600071 104.4100094  64.7600031
 108.0200005 102.5300026  63.5800028 108.0700016 102.1100044  62.6700020
 107.8300095 102.0100021  64.4100046 109.1500092 106.8800068  61.4600039
 109.9100018 106.3500023  60.6400013 108.5800076 108.0400085  61.1200047
 107.9100037 108.5000038  61.7100048 108.7000084 108.8300037  59.8400021
 108.4900093 108.0800056  59.0900040 107.9100037 110.1100063  59.9900007
 108.4100056 110.8200073  60.6900024 106.8200016 110.0500011  60.2300024
 107.8100014 110.8800030  58.7000036 107.2200012 110.2800083  57.9700041
 108.7800026 111.2000084  58.2700014 106.9400024 112.1400070  58.7800026
 106.0900021 111.8500042  59.4400024 107.6000023 112.8500080  59.3300009
 106.3200092 112.6700020  57.5500011 105.8300018 111.8300056  57.0200014
 107.1500015 113.0300045  56.9000006 105.4300022 113.7800026  57.8600025
 105.7600021 114.6400070  58.3400011 105.1100063 114.1300011  56.9400024
 104.6100044 113.3800030  58.3700037 110.1300049 109.1900063  59.5800018
 110.5700016 109.1900063  58.4000015 110.9200096 109.5400047  60.5800009
 110.6100082 109.6600056  61.5300035 112.2400093 110.0100040  60.2700043
 112.3400021 110.5100060  59.3200016 112.6700020 111.1000061  61.3300037
 113.7600040 111.3200092  61.2400007 112.4800014 110.8500099  62.3900032
 111.9200039 112.4100018  60.9500027 110.9500027 112.4500084  60.2500010
 112.3600006 113.5300064  61.5400028 113.0900097 113.5000038  62.2200012
 111.9200039 114.3800068  61.2800026 113.2400036 108.8900089  60.2500010
 114.4400024 109.1000080  60.0000048 112.7200031 107.6500034  60.5300045
 111.7500019 107.6600075  60.7600021 113.5900021 106.4800072  60.6400013
 114.5600033 106.8300056  60.3400040 113.6600018 105.8800030  62.0900011
 114.1000080 106.5900040  62.8100014 114.2800045 104.9500084  62.0500040
 112.3600006 105.4900074  62.5500011 111.8800068 106.3100052  62.7100039
 113.3800030 105.4200077  59.6100044 114.3400097 104.8600006  59.1300011
 112.1100044 105.2400017  59.1700029 111.4400005 105.7600021  59.7000027
 111.6100025 104.6100044  57.9200029 112.4500084 104.1700077  57.4000025
 110.7000065 103.4100056  58.0900049 109.7800064 103.7100029  58.6500025
 110.4400063 102.8100014  56.6900015 109.7500038 101.9400024  56.7400026
 109.9300098 103.5300064  56.0100031 111.3900089 102.4100018  56.2800026
 111.5000057 102.3800087  58.9700031 111.9000053 102.8300095  59.9100018
 112.3900032 101.9900036  58.4300041 110.6200027 101.2000084  59.4100046
 109.7600079 101.5300083  60.0300026 110.2100086 100.7300091  58.4800005
 111.2300014 100.4800034  59.9800014 110.9000015 105.6900024  57.1100044
 109.9200058 106.2700081  57.5500011 111.4400005 105.9200096  55.9700012
 112.1900082 105.3500080  55.6200027 111.2700081 107.1700096  55.2300024
 111.0500050 107.9200077  55.9800005 112.6300049 107.4900055  54.6100044
 112.5100040 108.5100079  54.1700029 112.8900051 106.7200089  53.8500023
 115.0800037 107.2600079  55.1900005 113.7600040 107.6200008  55.5600023
 115.8500099 107.7300072  56.1700010 116.9300079 107.6300049  56.1400032
 115.1300049 108.2700062  57.1700048 115.4000092 108.5100079  58.1000042
 113.8000011 108.1600094  56.8000031 113.0300045 108.6500072  57.4000025
 110.1900005 107.1200085  54.1800022 110.3500080 106.2900066  53.3200026
 109.1700077 107.9700089  54.1800022 108.7500095 108.6800098  55.3600025
 108.7000084 108.1300068  56.3200045 109.3900013 109.5500088  55.6100035
 108.1800079 108.0600071  53.1200027 107.6200008 107.1400070  53.2100010
 107.4500084 109.3200016  53.4700012 106.3800049 109.3600082  53.2000017
 107.9800034 110.2600098  53.2000017 107.3900032 109.2000008  55.0000048
 106.6300011 108.4800053  55.3400040 107.1100044 110.1200008  55.5500031
 108.6600018 108.0300045  51.6100025 107.9300022 107.4100018  50.7900047
 109.8900032 108.5300064  51.2400007 110.4000092 108.8600063  52.0300007
 110.3600025 108.4500027  49.8600006 109.5600033 108.4600067  49.1400003
 111.3800049 109.6500015  49.5300007 110.8800030 110.6400013  49.6300030
 111.5600014 109.6800041  48.4400034 112.7600098 109.6000099  50.2100039
 113.8000011 109.2900085  49.6200037 112.7900028 110.0500011  51.4500046
 111.9500065 110.3300095  51.9300032 113.7200069 110.0200081  51.8100023
 111.0600090 107.1000004  49.5900011 111.6500092 106.9700050  48.5300016
 111.0100079 106.1000061  50.5000019 110.8200073 106.1000061  51.4800024
 111.4100075 104.7400093  50.1800013 112.0400047 104.7100067  49.3000031
 112.1100044 104.0600014  51.3100004 112.4200058 103.0200005  51.0500002
 111.5100098 104.0600014  52.2500038 113.5300064 104.5600033  51.7500019
 114.1600037 105.2300072  50.9200001 113.9300060 104.1200066  52.8800011
 110.1000023 103.9500046  49.7000027 110.0400066 102.8000069  49.3700027
 108.9500046 104.6900082  49.5500040 108.9800072 105.6800079  49.6600008
 107.6100063 104.2900085  49.2000008 107.5300026 103.2700062  48.8400030
 106.6100025 104.2800045  50.4300022 105.6500053 103.8500023  50.0700045
 106.4600086 105.3300095  50.7500029 107.2100067 103.3900070  51.4400005
 107.1100044 101.9600010  51.2500048 106.8800068 101.6000080  50.2500010
 107.3600006 101.1300087  52.3000002 107.2300053 100.0500011  52.2500038
 107.7000046 101.6400051  53.5100031 107.9300022 101.0100079  54.3600035
 107.6800060 103.8700008  52.6500034 108.0500031 104.8700047  52.7800035
 107.9200077 103.0100060  53.7400007 108.4500027 103.3500004  54.6100044
 107.1800041 105.2100086  48.1100035 105.9900093 105.6000042  48.1500006
 108.0600071 105.7000065  47.1800041 109.0000057 105.3800011  47.2400045
 107.6900005 106.5600014  46.0500002 107.4600029 107.5200081  46.4900017
 108.7900066 106.7500019  44.9900007 108.4200096 107.4000072  44.1700029
 109.0000057 105.8600044  44.3700027 109.9700069 107.4300098  45.6400013
 110.3500080 106.9100094  46.5500021 109.5700073 108.3800030  46.0500002
 111.0700035 107.8400040  44.6900034 111.1700058 107.3700047  43.5600042
 111.9800091 108.7100029  45.2400017 111.7500019 109.0700054  46.1500025
 112.7700043 109.0800095  44.7700024 106.4500046 106.1300087  45.2900028
 105.4900074 106.8700027  45.1300001 106.5400028 104.8800087  44.7000027
 107.3100090 104.3600082  45.0700045 105.5500031 104.2300034  43.8700008
 105.2300072 104.9600029  43.1400013 105.9300041 102.8400040  43.2200003
 106.0800076 102.1600056  44.0900040 104.7400093 102.3000050  42.3699999
 104.5200062 102.8300095  41.4200020 105.0400066 101.2900066  42.0100021
 103.7800026 102.3400021  42.9200029 107.3400021 103.0000019  42.4600029
 107.6600075 102.0100021  42.0700026 108.1400013 103.2600021  43.1900024
 107.3800087 104.0000057  41.2800026 106.4700031 103.9300060  40.6400013
 107.4900055 105.0000095  41.7500019 108.2800007 103.8300037  40.6500006
 104.3500042 104.1100025  44.6600008 103.2200050 104.3700027  44.2100000
 104.4400024 103.7200069  45.9400034 105.2500057 103.3500004  46.3800001
 103.2500076 103.5100079  46.7300034 102.6400089 102.8600025  46.1199999
 103.7600040 102.6500034  47.9500008 104.6200085 103.1000042  48.4900045
 104.0200043 101.6300011  47.6000023 102.7800083 102.5200081  49.0700006
 102.8600025 103.4700012  50.1000023 103.6400032 104.2100048  50.1600027
 101.8800068 103.4000015  51.0900021 101.8500042 104.1900063  51.8200016
 100.9700012 102.3400021  51.2700033 100.0500011 102.1900082  52.3600006
  99.4300079 101.4800072  52.1700048 101.9100094 101.4300060  49.2500019
 102.0500088 100.7100010  48.4600019 101.0100079 101.3200092  50.2500010
 100.3500080 100.4700089  50.2800035 102.5000095 104.7700024  47.0900011
 101.2900066 104.8500061  47.3400021 103.2100010 105.9200096  47.1600008
 104.2100048 105.9500027  47.2100019 102.7200031 107.1900082  47.5000000
 101.7100048 107.0800018  47.8600025 103.7200069 108.0400085  48.3400011
 103.3900070 109.1000080  48.3100033 104.7100067 108.0100060  47.8299999
 103.6400032 107.4900055  49.7400045 102.6700020 106.8000031  50.1700020
 104.7400093 107.7000046  50.5400038 105.5300045 108.2100010  50.2100039
 104.5400047 107.5900078  51.5200043 102.4100018 107.9600048  46.1800003
 102.0500088 109.1400051  46.1800003 102.4900055 107.2700024  44.9800014
 102.9800034 106.4000034  44.9700022 102.2300053 107.8700066  43.6800003
 102.4000072 108.9300060  43.7400007 103.2100010 107.2700024  42.6600027
 104.2800045 107.2100067  42.9300022 103.2100010 107.9300022  41.7700005
 102.9300022 105.9400082  42.1600008 102.8900051 105.3600025  42.9200029
 100.7900047 107.5900078  43.1599998 100.3600025 108.1000042  42.1400023
 100.0900078 106.7700005  43.9300013 100.3100014 106.4000034  44.8300028
  98.8700008 106.1900043  43.4500027  98.7800026 106.3800049  42.3900032
  98.8200092 104.6600056  43.6800003  97.9100037 104.2600060  43.1800032
  98.7800026 104.5100021  44.7900009  99.8800087 103.8100052  43.0400038
 100.9000015 104.2600060  43.0200005 100.1100063 102.4100018  43.6900043
 100.4600048 102.6000023  44.7200012  99.2700005 101.6900063  43.6800003
 100.9500027 101.9000053  43.1800032  99.6400070 103.5300064  41.5500021
  98.6500072 103.1400013  41.2200022  99.6400070 104.4500065  40.9300041
 100.3300095 102.8000069  41.0700035  97.7900028 107.0400047  44.1000032
  97.7100086 107.0500088  45.2800035  96.9099998 107.6500034  43.2400036
  97.1100044 107.6500034  42.2700024  95.6900024 108.3400059  43.6600018
  95.9800053 109.1000080  44.3600035  95.2300072 109.1900063  42.4200010
  95.0000000 108.5400009  41.5400028  96.0600090 109.8600006  42.1099997
  93.9700031 110.0500011  42.6000023  93.0500031 109.4900036  42.8800011
  93.8600063 110.3800011  41.5500021  94.1700077 111.1500072  43.5300016
  93.7300014 110.9700012  44.5400000  95.2700043 111.3100052  43.6700010
  93.6500072 112.5000095  43.1200027  92.5800037 112.3100090  42.8800011
  94.1800022 112.8900051  42.2300005  93.9100075 113.4300041  44.2200041
  93.5900021 113.2200050  45.1900005  94.9400043 113.5500050  44.3400002
  93.5200024 114.3800068  44.0700006  94.5800018 107.4400043  44.4000006
  94.2700005 107.6300049  45.5500031  94.1600037 106.3400078  43.7800026
  94.5000076 106.0800076  42.8800011  93.1100082 105.5000019  44.3000031
  92.8000069 105.6500053  45.3200006  91.9200039 105.4200077  43.3700037
  91.2100029 104.6300030  43.7200022  92.2200012 105.0700092  42.3600006
  91.2600040 106.7500019  43.1000042  90.9700012 107.5900078  44.2200041
  91.2000084 107.2300053  45.2100039  90.5100060 108.8800049  44.0300035
  90.3900051 109.6400070  44.7900009  90.2600002 109.3400097  42.7100039
  89.8100090 110.6900024  42.4300003  89.4700050 111.1000061  43.2300043
  91.0600090 107.2300053  41.8200016  91.3800049 106.6500092  40.9700012
  90.6000042 108.5300064  41.6200018  90.5500031 108.9900017  40.6500006
  93.7200069 104.1400051  44.4000006  94.2200089 103.5600090  43.4500027
  93.8100052 103.5400009  45.6500006  93.2800007 103.8600063  46.4300013
  94.5100021 102.2200012  45.8000040  94.7600079 101.9200039  44.7900009
  95.7500076 102.3400021  46.8000031  95.9000015 101.2900066  47.1200037
  95.4700089 102.8600025  47.7400017  97.0000076 102.9600048  46.1900043
  96.7900085 103.8400078  45.5500031  97.3500061 102.1700096  45.4800034
  98.0400085 103.2400036  47.2900009  97.9400063 102.5500011  48.1500006
  99.0600014 103.1700039  46.8600035  98.0600071 104.6600056  47.9300022
  97.1000004 104.9100018  48.4300041  98.1600094 105.3600025  47.0800018
  99.1700077 104.9500084  48.9100027  99.1800022 105.9700012  49.1200018
  98.8900089 104.4200039  49.7600031 100.0500011 104.6400070  48.4800005
  93.5000038 101.1400032  46.1900043  93.4500027 100.6000042  47.3200035
  92.4900055 100.9100056  45.2500010  92.5400066 101.4300060  44.4000006
  91.3400078 100.2000046  45.5900002  91.1800003 100.3400040  46.6500044
  90.1300049 100.6800079  44.7800016  89.2100048 100.1400089  45.1100016
  90.2000046 100.3700066  43.7100029  89.7200012 102.1200085  44.9300003
  89.8700047 102.8800011  46.0900021  90.3200054 102.4500084  46.9700003
  89.3600082 104.1900063  46.1400032  89.4700050 104.7200012  47.0700026
  88.6700058 104.7200012  45.0200033  88.2400036 106.1000061  45.1200008
  88.0400085 106.4600086  44.2500019  89.0300083 102.6600075  43.7700033
  88.8600063 102.0800018  42.8800011  88.5400009 103.9700031  43.8600016
  88.0900002 104.4500065  43.0000019  91.4300060  98.7200069  45.3600025
  90.4700089  98.0500031  45.6100035  92.5500011  98.1200027  44.9100018
  93.2600021  98.6600018  44.4700003  92.6200008  96.6600037  44.9200010
  91.7600060  96.3000011  44.3700027  93.8400078  96.3100052  44.0300035
  94.7700024  96.8200016  44.3900013  93.7000084  96.7300034  43.0100012
  94.5900059  93.9500046  44.7700024  94.1800022  94.8200035  43.7300014
  94.9000072  92.8000069  44.2300034  95.3000069  91.9200039  44.7200012
  94.7200012  92.9000092  42.8500032  95.1600075  92.3800087  42.1300030
  94.3000031  94.2000008  42.5500011  94.3000031  94.5600033  41.5300035
  92.6400089  96.0500050  46.3800001  93.2300091  96.6900063  47.2300005
  92.0200062  94.9500084  46.7200041  91.3100052  94.0700054  45.8100033
  90.8700085  94.6400070  44.9600029  92.1300030  93.4100056  45.4600000
  92.0400047  94.3400002  48.0600023  91.7200089  95.0800037  48.7700033
  90.9800053  93.1500053  47.9500008  90.2800083  93.2000065  48.8100004
  91.5100002  92.1700001  47.9800034  90.2800083  93.4100056  46.6500044
  89.4099998  94.1000080  46.7300034  89.8200035  92.4700069  46.2700033
  93.4000015  93.9000034  48.5800028  93.5600090  93.7300014  49.7900009
  94.4900036  93.7200069  47.7600002  94.3100071  93.6200047  46.7900038
  95.8800030  93.5700035  48.1700039  95.9600067  92.8000069  48.9200020
  96.8300056  93.0200005  47.0200014  96.8800068  93.8199997  46.2500000
  96.4100075  92.1500015  46.4700031  98.2700062  92.7000046  47.4100018
  98.4200001  92.2100067  48.3900023  98.7800026  93.6900043  47.3699999
  99.0000057  91.7700005  46.4500046  98.4600067  91.4000034  45.4100037
 100.1600075  91.4200020  46.7300034  96.4000034  94.7700024  48.9300013
  97.2000027  94.5900059  49.8500013  95.9400082  96.0200024  48.5000038
  95.3100014  96.2200069  47.7600002  96.2700081  97.2600079  49.2700005
  97.3400021  97.2700024  49.3900013  95.8700085  98.5800076  48.4500027
  95.8800030  99.4800091  49.1100025  94.8600006  98.4200001  48.0100012
  96.8700027  98.8700008  47.3500013  98.1300068  99.3600082  47.6600027
  98.3500004  99.7500038  48.6400032  99.1100025  99.4400024  46.6700029
 100.0800037  99.8400021  46.9300032  98.8200092  99.1000080  45.3600025
  99.8000050  99.2500019  44.3200016 100.6800079  99.2600060  44.7000027
  96.5000057  98.5700035  46.0000038  95.4800034  98.3000088  45.7600021
  97.5000000  98.6600018  45.0000000  97.2600079  98.4800053  43.9600039
  95.7600021  97.2400093  50.6900024  96.3000011  97.9700089  51.5200043
  94.7300053  96.3500023  51.0500002  94.2500019  95.8000088  50.3700018
  94.3200016  96.1400032  52.4100018  94.0400028  97.0900059  52.8200006
  93.0600071  95.2300072  52.5900030  92.7800083  95.2000046  53.6700010
  93.1700039  94.2500019  52.1000004  91.8000031  95.8100033  51.9000006
  91.9200039  96.1100006  50.8400011  91.3900089  96.6300011  52.5100040
  90.6500053  94.7800064  51.9500017  90.5000019  94.0799999  52.9200029
  89.7500038  94.7500038  50.9700012  89.8100090  95.3500080  50.1800013
  89.1300011  93.9600086  51.0000038  95.4700089  95.6200027  53.3200026
  95.6400013  96.1600018  54.3800020  96.2300014  94.6400070  52.9000044
  96.0100079  94.2000008  52.0300007  97.3800087  94.0500069  53.5300016
  97.2200012  93.9300060  54.5900011  97.6300049  92.6300049  52.9000044
  97.4500084  92.5800037  51.8100023  96.8000031  92.0100021  53.3200026
  99.0900040  92.1400070  53.1000042  99.4700050  91.7300034  54.3800020
  98.8900089  91.8300056  55.2900028 100.7200050  91.1300087  54.5200014
 100.8900070  90.7700062  55.5300045 101.5700054  90.9400082  53.4600019
 102.8700066  90.5500031  53.7300014 102.8600025  90.1600075  54.6100044
 100.0400066  92.1500015  52.0500040  99.6700001  92.4200058  51.0700035
 101.2800026  91.4900017  52.2600031 102.1200085  91.4500046  51.5700006
  98.5000038  95.0300026  53.4800005  99.0300083  95.3500080  54.4800043
  98.7300014  95.6200027  52.2700024  98.2800007  95.2600002  51.4600039
  99.8300076  96.5300083  52.0900011 100.6900024  96.0400009  52.5000048
  99.9600029  96.7400074  50.5100012 100.5700016  97.6600075  50.3400040
  98.9700031  97.0500088  50.1200008 100.4700089  95.5200005  49.7700024
  99.9400043  94.5800018  50.0300026 100.4600048  95.8300018  48.2900000
 100.8100033  95.0000000  47.6400042  99.4000053  96.0500050  48.0400038
 101.0800076  96.7200089  48.0600023 101.9300079  95.2300072  50.1800013
 102.1500015  95.3299999  51.2700033 102.2400093  94.1900063  49.9600029
 102.6300049  95.8100033  49.5400047  99.8100090  97.8299999  52.9200029
 100.8200073  98.2600021  53.4600019  98.6600018  98.5000038  53.0700016
  97.8700066  98.1900024  52.5400019  98.3000088  99.5500088  53.9800024
  98.9200020 100.4000092  53.7200022  96.9000053 100.0500011  53.7400007
  96.5600014 100.8200073  54.4700003  96.2400055  99.1600037  53.8500023
  96.7200089 100.7700062  52.4400043  97.6500034 101.1900043  51.7500019
  95.4600048 100.8700085  52.0000029  94.7100067 100.5900002  52.6000023
  95.3400040 101.3200092  51.1200047  98.5300064  99.2700005  55.4900026
  99.1300011 100.0900078  56.1700010  98.1400013  98.0600071  56.0100031
  97.6500034  97.3300076  55.5300045  98.5000038  97.5600052  57.3900032
  98.0500031  98.2400036  58.1000042  97.7700043  96.2300014  57.6700020
  97.9000092  95.4200077  56.9300032  98.3900070  95.4600048  58.8600016
  97.8299999  94.5300007  59.0700006  99.3800068  95.1900005  58.4400034
  98.5100079  96.0300064  59.8100042  96.2200069  96.5200043  57.7300024
  95.9400082  96.8400002  56.7100048  95.9700012  97.2600079  58.5300016
  95.4500008  95.2600002  58.1200027  94.3600082  95.4700089  58.2500029
  95.6100082  94.4800091  57.3500013  95.7700062  94.9200058  59.1300011
 100.0100040  97.6300049  57.6800013 100.4700089  98.1600094  58.6400032
 100.8500004  97.1300030  56.6800022 100.3600025  96.7000008  55.9200048
 102.3100090  97.1700001  56.7100048 102.5200081  96.5000057  57.5300026
 102.9400063  96.6100025  55.4300022 102.6200008  97.2200012  54.5600033
 104.4900036  96.6700077  55.5200005 104.9900055  96.0800076  54.7200012
 104.8000050  97.7400017  55.5600023 104.8500061  96.1400032  56.4300013
 102.4400043  95.2100086  54.9300003 102.7400017  94.8700047  53.9200020
 101.3400078  95.3200054  54.8700047 102.6300049  94.0700054  55.9500027
 102.4200058  94.3200016  57.0100021 101.9100094  93.2800007  55.6500006
 103.6300087  93.6000061  55.8700037 102.8100014  98.6900043  56.7900038
 103.6100006  99.0000057  57.6200008 102.3100090  99.6200085  56.0300016
 101.6200066  99.4000053  55.3400040 102.6400089 101.0200024  56.0400009
 103.7200069 101.0000038  56.0400009 102.0100021 101.7000008  54.8600006
 100.9000015 101.6900063  54.9100018 102.3300076 101.1300087  53.9600039
 102.3900032 103.1000042  54.6600008 103.6000061 103.2800007  53.9200020
 104.1100025 102.4400043  53.4900045 104.1300011 104.5400047  53.7200022
 105.1100063 104.6100044  53.2600021 103.5600090 105.6500053  54.2800045
 104.1100025 106.9300079  54.1700029 104.2000008 107.3500061  55.0300026
 101.8400002 104.2000008  55.3400040 101.0000038 104.0900040  56.0100031
 102.4600029 105.4900074  55.1600027 102.0100021 106.3300037  55.6500006
 102.2800064 101.6400051  57.4400043 102.9500008 102.5100040  57.9400015
 101.1300087 101.3400078  58.0300045 100.6200027 100.5900002  57.6200008
 100.8200073 101.8600082  59.3300009 100.8500004 102.9400063  59.4000006
  99.3900013 101.4100075  59.6500015  99.2400074 100.3300095  59.8600006
  98.8300037 101.6500092  58.7200022  98.6600018 102.1900082  60.7300043
  98.3900070 103.3600044  60.6100035  98.2700062 101.5800095  61.7300034
 101.8400002 101.3300037  60.4300022 102.2000027 102.1100044  61.2900019
 102.2100067  99.9800014  60.3900051 101.8300056  99.3700027  59.7000027
 103.2300091  99.4000053  61.3000011 103.0100060  99.6500015  62.3300028
 103.1800079  97.8800011  61.2000036 103.2300091  97.5100040  60.1600027
 104.2300034  97.3800087  62.2100019 104.2400074  97.9100037  63.1900024
 103.9900017  96.3200092  62.4000025 105.2200031  97.4600029  61.7100048
 101.7800045  97.5100040  61.7400026 100.9700012  97.8200054  61.0300016
 101.6700077  98.1200027  62.6600027 101.5300083  96.0700035  61.9500017
 100.4500008  95.8200073  61.8300009 102.1100044  95.4200077  61.2600040
 101.6900063  95.8600044  63.0300045 104.5400047 100.0100040  61.0400009
 105.2700043 100.4300022  61.9600010 104.9100018 100.2900028  59.7700024
 104.4000053 100.1400089  58.9300013 106.2200069 100.9200001  59.4700050
 106.9800091 100.4100037  60.0500011 106.7600060 100.7800007  58.0200005
 107.5800037 101.5100002  57.8300047 106.0600090 100.9700012  57.1900034
 107.0000076  99.2600060  57.7900028 106.0500050  98.6900043  57.7700043
 107.5600052  98.9400005  58.6900043 108.0100060  99.0700054  56.3300037
 108.0800056  97.2400093  56.6400003 107.0400047  96.8600082  56.7000008
 108.3900070  96.7200089  55.7100010 108.7600040  96.9200039  57.4700022
 106.3400078 102.3000050  60.0300026 107.3400021 102.6600075  60.6700039
 105.3300095 103.0900002  59.7800016 104.5700073 102.7200031  59.2600012
 105.2500057 104.4600010  60.2400017 106.2200069 104.8900032  60.0500011
 104.1500092 105.1900005  59.4000006 103.7800026 106.0900021  59.9300051
 103.2600021 104.5400047  59.2200041 104.6700096 105.6100082  57.9600048
 103.7300014 105.7400036  57.4000025 105.1600075 104.7700024  57.4300051
 105.8900070 106.9900036  57.9100037 104.5600033 108.1800079  58.3600044
 104.3900013 108.1000042  59.4600010 104.8400021 109.2100048  58.0700016
 103.6500072 107.8700066  57.7900028 104.8600006 104.7300053  61.7700052
 105.3300095 105.7100010  62.3800039 104.0400028 103.8500023  62.2800016
 103.5200024 103.1900024  61.7300034 103.4300041 104.1400051  63.5600042
 103.8600063 105.0100040  64.0500021 102.0000076 104.5600033  63.3700037
 101.4300060 104.7500038  64.3100023 101.4900017 103.7300014  62.8400040
 101.9200039 105.6300068  62.3800039 101.5900040 105.5700016  61.1900043
 102.2700024 106.8500042  62.8900051 102.4300003 107.0700073  63.8600016
 102.4600029 107.5700092  62.2200012 103.4000015 102.9200077  64.4300032
 102.7500057 102.9900074  65.5000019 104.0600014 101.8600082  64.0100050
 104.3600082 101.8000031  63.0700016 104.2800045 100.6500053  64.8200035
 103.3100033 100.2100086  65.0200033 104.9300003 100.0500011  64.2000008
 105.0100040 100.8600044  66.1200047 106.0100079 101.5500069  66.1700010
 104.5700073 100.1000023  67.1400023 103.9300060  99.3700027  66.9300032
 105.1400089 100.1700020  68.4500027 105.4700089 101.1900043  68.5900021
 104.0900040  99.8700047  69.5500040 104.5300007  99.8100090  70.5600023
 103.6100006  98.9200020  69.2400026 102.9200077 100.8300018  69.6300030
 101.7000008 100.6100082  69.4600010 103.2500076 102.1300030  69.9800014
 104.1800022 102.2300053  70.3600025 102.5300026 102.8200054  69.9500036
 106.3200092  99.3100071  68.5300016 106.2200069  98.1100082  68.4300041
 107.5100040  99.9200058  68.7900019 107.4200058 100.9100056  68.8800049
 108.8000011  99.2400074  69.0100050 109.1100025  98.7600040  68.0900049
 109.9100018 100.2800083  69.2000055 110.8800030  99.8400021  69.5100021
 109.5600033 101.0300064  69.9500036 110.2400017 101.0100079  67.9300022
 109.3900013 101.6500092  67.6000023 110.4700089 100.3700066  67.0500040
 111.3600063 101.9500065  68.1300020 110.9700012 102.7100086  68.8400030
 112.1500015 101.5100002  68.7800026 111.7400074 102.6100063  66.8100023
 110.8500099 102.9800034  66.2500048 112.2900009 101.8400002  66.2400055
 112.6200008 103.7300014  67.1200037 113.2600021 104.0100002  66.3500023
 112.0500088 104.6000004  67.1900034 113.2400036 103.5000038  67.9300022
 108.7700081  98.2900047  70.1800013 108.5600090  98.7400055  71.3200045
 108.9300060  96.9500065  69.9800014 109.0300083  96.5300083  69.0900040
 108.7700081  96.0300064  71.0900021 109.0800095  96.5100002  72.0100021
 107.3000050  95.5600071  71.3500023 107.3000050  94.6500015  71.9800043
 106.8700027  95.3299999  70.3600025 106.3700008  96.5300083  72.0200014
 106.2900066  97.5600052  71.6100025 106.8500042  96.7500019  73.0000019
 104.9500084  95.9400082  71.9500017 104.5700073  95.1400089  71.1100054
 104.1400051  96.3500023  72.9300022 104.5100021  96.7600060  73.7600040
 103.1500053  96.1900043  72.8600025 109.7000027  94.8400021  70.9800053
 110.0300026  94.2600060  69.9200010 110.1500034  94.3000031  72.1500015
 110.0500011  94.8700047  72.9700041 110.5000019  92.8700066  72.3800039
 111.2000084  92.7200031  71.5800047 111.2800026  92.6100063  73.6900043
 112.1900082  93.2300091  73.6100054 111.6200066  91.5700054  73.8100052
 110.6700039  93.0400085  74.9200058 111.2200069  92.7800083  75.6700039
 109.3900013  91.8700027  72.1700048 108.2000065  92.1900082  72.0600033
 109.8000050  90.6000042  71.9100046 110.8000088  90.5000019  71.9200039
 108.9700031  89.5400047  71.3500023 107.9300022  89.7500038  71.5700054
 109.0200043  89.5600033  69.7800016 109.2300034  90.6200027  69.5300055
 108.0800056  89.2600060  69.2600012 110.0700092  88.7100029  69.1600037
 111.2500095  88.9500046  69.5000029 109.7000027  87.6900005  68.4700012
 109.4000053  88.2200050  71.9200039 110.4000092  88.1300068  72.6700020
 108.7200069  87.0900059  71.6800022 107.9600048  87.2000027  71.0400057
 109.0500069  85.7700062  72.0300055 109.2100048  85.7900047  73.1000042
 107.9100037  84.8000050  71.7100048 107.6200008  84.9900055  70.6500053
 107.0900059  85.1000023  72.3800039 108.1600094  83.3400059  71.9400024
 108.5300064  83.1700039  72.9700041 109.0300083  82.9200077  71.3800049
 107.0400047  82.3600006  71.5900040 106.0800076  82.6000023  72.1000051
 107.2100067  81.2700081  71.7400026 106.7600060  82.4900055  70.1200056
 106.1000061  83.1800079  69.8400021 107.3500061  81.8200016  69.1300011
 106.9700050  82.0800018  67.9300022 106.1300087  82.6000023  67.8600025
 107.3700047  81.5200043  67.2100019 108.3400059  80.9300041  69.3000031
 108.9100075  80.9100056  70.1300049 108.5600090  80.3500080  68.5200024
 110.2800083  85.2200031  71.3900042 111.1100006  84.5300007  72.0900011
 110.5400085  85.4800034  70.0900030 109.8600006  86.0599995  69.6500015
 111.6500092  84.8800087  69.3400049 111.7700100  83.8700008  69.7100019
 111.3500023  84.7900009  67.8000021 112.2400093  84.2400074  67.4100018
 111.2600040  86.0599995  67.1400023 110.7700062  86.6100025  67.7600050
 110.0900078  83.9800072  67.5900030 109.9700069  83.7500000  66.5100050
 110.0800037  83.0400085  68.1800032 109.1600037  84.4500065  67.9900026
 112.9800034  85.6200027  69.6000051 114.0500069  84.9400043  69.4900036
 112.9800034  86.9300079  69.9200010 112.1800041  87.5200081  69.9800014
 114.1100025  87.6700020  70.3000021 113.8400078  88.4100056  71.0400057
 114.9600029  87.1500015  70.7200050 114.7400093  88.4899998  69.2100048
 115.7900047  89.1100025  69.3800020 113.9100075  88.5200024  68.1000042
 113.2700062  87.7600002  68.0900049 114.2400074  89.2700005  66.8200016
 115.3000069  89.3700027  66.6900015 113.6000061  88.4800053  65.6600046
 112.5800037  88.2700062  66.0600042 113.6200047  89.3000031  64.4500017
 113.3600044  88.7600040  63.5200024 112.8900051  90.1400089  64.4800043
 114.6400070  89.7000027  64.2500019 114.3600082  87.2000027  65.5900049
 115.4200077  87.4200058  65.3500032 114.1900063  86.5300083  66.4600039
 113.8900089  86.6400051  64.7400045 113.6700058  90.6900024  66.9900036
 114.2400074  91.6900063  66.5500021 112.5600052  90.8000088  67.7300024
 112.1900082  89.9800014  68.1600046 111.8600082  92.0500088  67.9700041
 111.1100006  91.8800068  68.7300014 112.5700092  92.8100014  68.2600021
 111.0600090  92.5300026  66.8700027 111.2600040  92.2500038  65.6900024
 110.0500011  93.3600044  67.2200012 109.9900055  93.8100052  68.1000042
 109.0300083  93.7200069  66.2500048 109.2700005  93.4100056  65.2500010
 107.6700020  93.0200005  66.4100027 106.8600082  93.4400082  65.7900047
 107.7500057  91.5400028  66.0400009 107.8300095  91.4900017  64.9300051
 108.6400032  91.0800076  66.5100050 106.8000031  91.0400009  66.3300037
 107.1800041  93.1800079  67.8700018 107.1900082  94.2300034  68.2300043
 106.1600018  92.7600002  67.9700041 107.7800083  92.5400066  68.5500050
 108.8500023  95.1500034  66.2600040 109.3000031  95.8800030  67.1100044
 108.1100082  95.6000042  65.2200031 108.0700016  95.0500011  64.3900013
 107.2500038  96.7400074  65.3200054 107.4700069  97.2000027  66.2700033
 107.5000095  97.6500034  64.0400028 106.6900063  98.4200001  64.0600014
 107.3400021  97.0000076  63.1600046 108.8400078  98.2700062  63.9100027
 109.6400070  97.5000000  63.9900017 108.9400005  99.1300011  62.5600052
 108.0600071  99.8100090  62.4400043 109.8600006  99.7500038  62.5800037
 108.9400005  98.4700012  61.6700029 109.1000080  99.2500019  65.0600052
 109.0100098  98.7300014  66.0400009 110.1000023  99.7100067  64.9200010
 108.4100056 100.1200008  65.0700045 105.8200073  96.1700058  65.3500032
 105.4900074  95.1800060  64.6500015 104.8600006  96.7700005  66.1600018
 105.1400089  97.4100018  66.8700027 103.5100079  96.1100006  66.2900019
 103.4100056  95.4500008  65.4500008 103.4700012  95.3100014  67.6000023
 104.4500065  94.7900009  67.6700020 102.6600075  94.5500088  67.5400019
 103.3700085  96.1600018  68.7700033 103.7700081  95.6700039  69.4900036
 102.4900055  97.1500015  66.2400055 102.7700043  98.3600044  66.3700008
 101.2500095  96.7000008  65.9400034 101.0700035  95.7800007  65.6000042
 100.0300026  97.4600029  65.9400034 100.0500011  98.2700062  66.6600037
  99.7000027  98.0900002  64.5500040  98.6100006  98.3000088  64.5300007
 100.0100040  97.3500061  63.7800026 100.2800083  99.5200062  64.3200016
  99.9400043  99.7800064  63.2900047 101.3800049  99.4100094  64.3500042
  99.9100018 100.7300091  65.2200031 100.4000092 100.4700089  66.1800051
 100.3200054 101.6900063  64.8400021  98.4200001 101.0700035  65.4900026
  98.4000015 102.0600033  66.0000038  97.9800034 100.3500080  66.2100029
  97.5700092 101.1800003  64.2800045  97.0100021 100.3100014  64.1500044
  96.9700050 102.0300007  64.3200016  98.1600094 101.2600040  63.4300041
  98.9100075  96.5200043  66.4000034  98.9000034  95.3299999  66.2300014
  97.9400063  97.0500088  67.1500015  97.9400063  98.0200005  67.4100018
  96.8700027  96.2200069  67.7900028  97.1400070  95.1900005  67.5900030
  96.8900013  96.3800049  69.3000031  96.7200089  97.4500084  69.5800018
  97.8600025  96.1200047  69.7800016  95.8800030  95.4400063  69.9100018
  96.2800026  94.0799999  70.1300049  97.2500038  93.6600018  69.9000025
  95.3900051  93.2700062  70.8100033  95.6599998  92.2600079  71.0900021
  94.0900040  93.7200069  71.0900021  93.3900070  93.0400085  71.5600014
  94.7399998  95.9600067  70.4800034  94.5700073  97.0100021  70.3200054
  93.7500000  95.0500011  70.9700012  92.9200077  95.4100037  71.5600014
  95.5400085  96.6400051  67.0900011  95.2300072  97.8200054  67.0300055
  94.8400021  95.5600071  66.5300035  95.2800083  94.6700001  66.4900017
  93.4600067  95.6000042  66.2000036  93.3300018  94.5200062  66.2300014
  92.9200077  96.2500000  66.8600035  93.2800007  96.1300087  64.7600031
  93.6600018  97.2500038  64.4700050  92.7200031  95.2700043  63.8800049
  92.6500034  94.3100071  64.1400051  92.6300049  95.5400085  62.4400043
  92.2399998  96.5300083  62.2500038  93.9000034  95.2000046  61.6200018
  93.7900066  95.0100040  60.5400038  94.1800022  94.2000008  62.0200014
  95.0300026  96.1500072  61.8100023  95.0300026  97.4000072  61.2300014
  94.1300011  97.6400089  60.6800032  96.1400032  98.2300091  61.2400007
  96.1200047  99.1000080  60.6000042  97.3300076  97.8000069  61.7600012
  98.5400009  98.3800030  61.5300035  98.3900070  99.2200089  61.1000013
  96.2400055  95.7600021  62.5000048  96.2900066  94.7600079  62.9100037
  97.3100090  96.5900040  62.5100040  98.2100010  96.2900066  63.0400038
  91.5799999  94.6000004  61.8400049  91.1500072  93.6400032  62.5100040
  91.0500050  94.8800087  60.6000042  91.2900066  95.7000065  60.0800037
  90.1500034  93.9100075  60.0200033  90.5200005  92.9300022  60.2800035
  88.7200069  94.1800022  60.4800034  88.8800049  94.0600014  61.5800047
  88.2500076  95.6200027  60.3200006  87.4500084  95.9300041  61.0200024
  89.1100025  96.3300037  60.4100037  87.6900005  95.6000042  59.3600035
  87.7900028  93.0700016  59.9000025  88.2700062  92.0800018  60.0900030
  87.7000046  93.1000042  58.8000011  86.3800049  93.1100082  60.4400015
  85.7000065  93.8199997  59.9100018  85.9500027  92.1100044  60.2200031
  86.2300014  93.2800007  61.5300035  90.2000046  94.0000057  58.4900045
  90.1800060  95.0000000  57.8100014  90.2100086  92.8299999  57.8700018
  90.3299999  91.9700050  58.3600044  90.2500057  92.8299999  56.3800049
  90.0300026  93.7900066  55.9300041  91.5500069  92.2500038  55.8800030
  91.5400028  92.3400021  54.7800016  91.6200066  91.1500072  56.0200024
  92.7900028  92.9500008  56.4700031  92.9800034  92.5500011  57.4900007
  92.5400066  94.0300083  56.5700006  94.2700005  92.7100086  55.5300045
  94.5200062  90.9800053  55.9000015  94.3300056  90.6599998  56.9500017
  93.7800026  90.3999996  55.3000021  95.5100060  90.6300068  55.5500031
  89.1200066  91.9300079  55.8400011  88.7000084  91.0500050  56.5600014
  88.6900043  92.1200085  54.6200037  89.0799999  92.8100014  54.0200043
  87.5400066  91.4200020  54.1000032  87.3300076  90.5400085  54.6800041
  86.3100052  92.3700047  54.1700029  85.4100037  91.8200016  53.8400030
  86.2300014  93.3000088  53.5600042  85.9800053  92.8900051  55.6000042
  86.6300011  93.7700081  55.7800007  86.3300037  92.1900082  56.3900042
  84.5100021  93.2800007  55.8000040  84.1300011  93.9700031  55.0200033
  83.8700008  92.3700047  55.8500004  84.2500019  93.9700031  57.1600008
  84.9000072  94.8200035  57.4600029  84.3900013  93.1800079  57.9300022
  82.8999996  94.5300007  57.3700047  82.6700020  94.8700047  58.3300018
  82.7900028  95.3400040  56.7300034  82.2600079  93.7900066  57.0400047
  87.7500057  91.2300014  52.5700045  88.0000019  92.2300053  51.9200039
  87.6900005  89.9400043  52.1400023  87.6600075  89.2400074  52.8600025
  87.8999996  89.3900013  50.8300018  88.1100082  90.2100086  50.1600027
  89.1800022  88.5100079  50.8400011  89.4500065  88.1500053  49.8200035
  88.9600086  87.5699997  51.4000034  90.4100037  89.2500019  51.4200020
  90.8400059  90.4500008  50.8700037  90.2900028  90.8600044  50.0400019
  91.9300079  91.1400032  51.3900042  92.2700024  92.0500088  50.9200001
  92.4100018  90.7000065  52.6000023  93.2500076  91.2600040  52.9900026
  90.8000088  88.8800049  52.6800013  90.3400040  88.0800056  53.2300043
  91.8600082  89.5500088  53.3100033  92.3200035  89.2300034  54.2300034
  86.7400074  88.6300087  50.3500032  86.2900066  87.6600075  50.9400034
  86.1600018  89.0700054  49.2300034  86.7200089  89.7000027  48.7000036
  84.9100018  88.5700035  48.6200047  84.3500042  88.1599998  49.4400024
  84.0400028  89.7000027  47.9400015  84.7900009  90.3900051  47.5000000
  83.6500072  90.3500080  48.7500000  82.8700066  89.3800068  47.0600033
  82.3000050  88.2700062  47.2800016  82.5200081  90.3500080  46.3800001
  85.2700043  87.4100018  47.6100016  85.8900070  87.6200008  46.5200043
  84.8600006  86.1800003  47.8900003  84.4099998  86.1600018  48.7800026
  85.2400017  84.9700069  47.2900009  86.2400055  85.0400066  46.8700027
  85.2400017  83.7800026  48.2400036  85.5600071  82.8800011  47.6800013
  84.2600060  83.4899998  48.6800003  86.1600018  83.9300060  49.5100021
  85.8900070  84.8500061  50.0700045  86.0500050  82.7900028  50.4300022
  85.0100040  82.7000046  50.8100033  86.4000034  81.9300079  49.8200035
  86.7100048  82.9800034  51.3100004  87.6000023  84.1000080  48.9500046
  87.8299999  83.1300068  48.4700012  87.6600075  84.9100018  48.2000017
  88.3700085  84.2400074  49.7500038  84.2600060  84.6800041  46.1500025
  84.3800068  83.7500000  45.3600025  83.3200073  85.6300068  45.9000015
  83.2700062  86.3199997  46.6100025  82.3600006  85.5400085  44.8400021
  82.2500038  84.4900036  44.6400023  80.9899998  86.2800026  45.1800013
  80.5400085  86.0400009  46.1700010  80.2700043  86.0000038  44.3800020
  81.1900043  87.6800060  45.0200033  81.6100025  87.9400063  45.8500004
  83.0500031  86.1800003  43.6199999  82.9600048  85.7400036  42.4700022
  83.9100075  87.2600079  43.8400030  83.9500046  87.4800014  44.8100042
  84.6700001  88.0400085  42.8800011  84.2300034  88.0200005  41.8900013
  84.5700073  89.5000076  43.2100010  85.2300072  90.0800037  42.5300026
  84.9300003  89.8000050  44.2200041  83.1700039  90.1600075  43.1400013
  83.0900002  91.0500050  43.8000011  82.4800014  89.4799995  43.6900043
  82.6399994  90.5200005  41.7799997  82.8800011  89.8700047  40.7400036
  81.7000008  91.5600014  41.7600012  81.5900040  92.2000027  42.5200033
  81.2600040  91.7000008  40.8700037  86.1500072  87.7300072  42.6900005
  86.7300034  88.1300068  41.6800022  86.7500019  86.9099998  43.5700035
  86.2800026  86.8400002  44.4500017  88.1500053  86.6900063  43.4000015
  88.2000065  86.1600018  42.4600029  88.9800072  88.0200005  43.3800030
  88.9300060  88.6300087  42.4500036  90.0800037  87.8299999  43.4000015
  88.7000084  88.9500046  44.5100021  89.4000053  88.8000011  45.7500029
  90.2700043  88.1500053  45.7500029  89.0900040  89.6200085  46.8100023
  89.6600056  89.6000004  47.7300024  88.0300045  90.6200027  46.6600037
  87.7300072  91.4400005  47.7200031  87.3400021  92.2600079  47.4300003
  87.7400017  89.9500084  44.3600035  87.3400021  90.2200031  43.4000015
  87.3500061  90.6900024  45.4700041  86.5700054  91.4300060  45.4000044
  88.7500000  85.7600021  44.4200039  88.2100010  85.5300045  45.4900026
  89.8900032  85.1300049  44.1500044  90.2800083  85.2800083  43.2500029
  90.6300068  84.3400002  45.1400042  89.9600029  84.1300011  45.9600019
  91.1700058  83.0500031  44.5200014  91.8200016  83.1900024  43.6300039
  90.3200054  82.4400043  44.1400003  91.9700050  82.1700001  45.4600000
  91.2600040  81.6600037  46.5799999  90.2700043  82.0300007  46.8100023
  91.9600010  80.8900070  47.5400019  91.3300037  80.6200027  48.3800030
  93.3100033  80.4900074  47.3000002  93.9000034  79.9000025  48.0000019
  93.2600021  81.6900063  45.1999998  93.8300037  82.0900059  44.3700027
  93.9100075  80.9400082  46.1500025  94.9400043  80.7100010  45.9200001
  91.8400002  85.1500034  45.6500006  92.7400017  85.4500008  44.8699999
  91.9099998  85.5500031  46.8900013  91.0800076  85.0699997  48.0000019
  89.9900055  85.2200031  47.8400040  91.3000011  84.0300083  48.3200026
  92.7100086  86.7600060  47.1300030  92.7500057  87.4200058  46.2800026
  92.0300007  87.2900009  48.3700037  91.1400032  87.8999996  48.1000042
  92.7100086  88.0000019  48.8900042  91.4500046  86.0400009  49.1000032
  90.6000042  86.2700081  49.7700024  92.2600079  85.5900002  49.7200012
  94.1500092  86.3600063  47.4100018  94.7100067  86.5700054  48.5200024
  94.8400021  85.8100033  46.4300013  94.4099998  85.3999996  45.6300020
  96.2100029  85.3500080  46.6700029  96.4300060  85.2400017  47.7200031
  96.4500046  84.0200043  45.9700012  96.3700008  84.0100002  44.8600006
  95.7100010  83.3600044  46.4700031  97.7500057  83.3100033  46.2400007
  98.5900021  84.0200043  46.0700035  97.7700043  82.7300072  47.6800013
  96.9300079  81.9900036  47.7100039  98.7700081  82.2900009  47.8500032
  97.6900005  83.5700035  48.4000015  97.9300022  82.1200085  45.3299999
  98.8300037  81.4900017  45.4700041  97.0500088  81.4600086  45.5400038
  97.8200054  82.4100018  44.2600012  97.2400093  86.3700008  46.1199999
  97.1900082  86.8300056  45.0000000  98.0400085  86.8700027  47.1000004
  98.0800056  86.3500023  47.9500008  98.8600063  88.0600071  46.9900036
  98.2100010  88.8800049  46.7300034  99.5400047  88.3700085  48.4200001
  99.9100018  89.4099998  48.3200026 100.4400063  87.7400017  48.5500002
  98.5700035  88.4400082  49.6300030  98.3700085  87.4000072  49.9600029
  99.2000008  89.0600014  50.9000015 100.0600052  88.4100056  51.1800003
  99.5300007  90.0300026  50.4700041  98.4700012  89.0500069  51.7400026
  97.3600006  89.2500019  49.4000006  96.5400028  88.8500023  48.7600040
  96.8300056  89.5400047  50.3400040  97.5400066  90.2800083  49.0300035
  99.8400021  88.0200005  45.8100033 100.6100082  87.0700073  45.5400038
  99.8000050  89.0500069  44.9200010  99.4100094  89.9400043  45.1700020
 100.4700089  89.0300083  43.6600018 100.7000065  88.0400085  43.2900000
  99.6000004  89.5800018  42.5500011 100.1700020  89.4600010  41.6100025
  99.2500019  90.9600067  42.7600002  99.0600014  91.1000061  43.6900043
  98.2800007  88.9000034  42.3800039  97.7200031  89.1100025  43.3100033
  97.6800060  89.2900085  41.5300035  98.3100033  87.8000069  42.2600031
 101.7300034  89.8500061  43.6800003 102.4300003  89.8200035  42.6500034
 101.9700050  90.5800056  44.7900009 101.2500095  90.7299995  45.4600000
 103.2200050  91.3500023  44.9800014 103.5200024  91.7700005  44.0300035
 103.0800056  92.7000046  45.7400036 104.0500069  93.2100010  45.9200001
 102.5100040  92.4100018  47.0300007 101.6000080  92.1500015  46.8900013
 102.1600056  93.7000084  44.9800014 102.4800014  93.8199997  43.9200020
 101.1100006  93.3600044  45.0300026 102.2100067  94.7000027  45.4700041
 104.4100094  90.6000042  45.3200006 105.5300045  91.0800076  45.2500010
 104.2300034  89.3100071  45.6300020 103.3000088  88.9500046  45.5900002
 105.3200054  88.3000088  45.5300045 106.0000038  88.6300087  44.7600031
 106.1600018  88.1000042  46.7900038 106.5500069  89.0900040  47.0800018
 107.0900059  87.4900055  46.6600037 105.2300072  87.5800037  47.9800034
 104.8800087  86.5500069  47.7600002 104.3400097  88.2299995  47.9700041
 105.9100056  87.5300026  49.3600035 106.9500065  87.1900082  49.1800022
 106.0800076  88.5599995  49.7500038 105.1500034  86.6300011  50.3300047
 105.2100086  85.5300045  50.1400042 104.0500069  86.8200016  50.3500032
 105.6400013  86.7600060  51.7300034 105.5200005  87.7100086  52.1200037
 105.1900005  86.1000061  52.4000025 106.6200066  86.4200020  51.6700029
 104.6900082  86.9500065  45.1800013 103.4200096  86.7800045  45.2900028
 105.5000019  85.9400082  44.6800041 106.4600086  86.1500072  44.5400000
 105.0000095  84.6100044  44.3500042 104.0100002  84.7500038  43.9499998
 105.9900093  83.9700031  43.3800030 107.0200062  83.9800072  43.8000011
 105.9300041  84.7100067  42.5600004 105.4900074  82.6100063  42.8400040
 104.5600033  82.7700043  42.2500038 105.2100086  81.8800068  43.6300039
 106.6000080  82.0700073  41.9200039 106.9100094  82.7700043  41.1199999
 107.5200081  82.0900059  42.5500011 106.4700031  80.6800079  41.4300013
 105.9000015  80.0500011  42.1500015 107.4600029  80.2500057  41.1700010
 105.6100082  80.7299995  40.1999998 104.9800014  79.9100018  40.1100016
 105.0500011  81.6100025  40.1700020 106.2000084  80.7700062  39.3400025
 104.9500084  83.7000084  45.6300020 105.9900093  83.3800030  46.1900043
 103.7000084  83.2400036  45.9100008 103.0000019  83.5300064  45.2600002
 103.3100033  82.1900082  46.8800020 104.0600014  82.1100044  47.6500034
 101.8900013  82.5900078  47.4600029 101.5400028  81.9099998  48.2600021
 101.1600018  82.7600002  46.6400003 101.9700050  83.9300060  48.3400011
 102.5700092  84.6900082  47.7900028 100.6500053  84.6500015  48.5400009
 100.0700092  84.1400051  49.3400002 100.8900070  85.6900024  48.8500023
  99.9700069  84.5500088  47.6700020 102.7800083  83.7900066  49.6000004
 103.7300014  83.2299995  49.5400047 102.8400040  84.8099995  50.0400019
 102.1500015  83.2800007  50.3600025 103.2400036  80.8200073  46.3400030
 102.7300072  80.6200027  45.2600002 103.7200069  79.8400021  47.1200037
 104.2100048  80.1000023  47.9500008 103.4900093  78.4200048  46.9099998
 103.3800030  78.2700014  45.8500004 104.7500038  77.4600029  47.2100019
 104.6500015  76.4300013  46.8100023 104.9200058  77.4700022  48.3100033
 105.9300041  78.1200027  46.4700031 106.9600010  78.8200045  47.1100044
 106.8000031  79.1000032  48.1400013 108.0400085  79.3200016  46.3800001
 108.7800026  79.8300028  46.9700003 108.2500076  78.9000034  44.9900007
 109.1400051  79.2200041  44.4600010 106.1000061  77.8600025  45.0200033
 105.4000092  77.2100019  44.5100021 107.3200035  78.1600046  44.4000006
 107.4800014  78.0100060  43.3400011 102.3100090  78.0400038  47.8000021
 102.1700096  78.5100031  48.9400005 101.4000034  77.1700048  47.2600031
 101.5000057  76.8900013  46.3000011 100.1500034  76.8500042  47.9200029
 100.1700020  77.3000050  48.9000034  98.8800049  77.2000027  47.0200014
  98.3800030  76.2600040  46.7000008  99.1700077  77.9300022  46.2300014
  97.8100014  78.0100060  47.7600002  97.6800060  77.5500059  48.7600040
  98.3800030  79.3700027  48.1400013  99.2400074  79.3600035  48.8500023
  98.6500072  79.9500036  47.2300005  97.5200081  79.8000050  48.6900043
  96.4700031  78.1600046  47.1200037  95.8000088  78.7500048  47.7900028
  96.4800072  78.5200024  46.0700035  96.0700035  77.1300030  47.1500015
  99.9400043  75.3500032  48.2400036  98.9300060  74.9400043  48.7600040
 100.8900070  74.4400024  47.8100014 101.7900085  74.6800041  47.4500036
 100.6600094  73.0100012  47.8700018  99.6600056  72.7800035  47.5400019
 101.5700054  72.1000051  47.0100021 102.6400089  72.4200058  47.0500040
 101.3000011  72.3500013  45.9600019 101.5900040  70.5500031  47.1800041
 100.6700039  70.1100016  46.7500019 101.6200066  70.2100039  48.2400036
 102.8200054  70.0200033  46.3900042 102.8000069  70.4900026  45.3900003
 102.7700043  68.9300013  46.1900043 104.0800095  70.3400040  47.1200037
 104.5900059  71.0900021  46.7100000 104.5000076  69.8800039  48.2700014
 103.9300060  68.8000011  48.8700008 103.0800056  68.3700037  48.5800028
 104.4200039  68.3700037  49.6200037 105.5700016  70.3500032  48.8300037
 106.1000061  70.9600019  48.2400036 106.0100079  69.8300028  49.5600033
 100.6000042  72.5100040  49.2900038  99.7700024  71.6800022  49.6300030
 101.4700031  73.0300045  50.1700020 102.0500088  73.8000011  49.9000025
 101.6900063  72.7100039  51.5600014 101.8300056  71.6400051  51.5000010
 102.6100063  73.2400036  51.8000031 100.5400085  73.1900024  52.4600029
 100.3300095  72.5800037  53.4600019  99.9200058  74.3800020  52.1300030
 100.2900028  75.0300026  51.4700031  98.9000034  74.9000025  53.0300045
  99.1400051  74.6700048  54.0500021  98.9200020  76.4400053  53.0100012
  98.1200027  76.6700029  53.7500048 100.2800083  77.0700026  53.5100031
 100.2300072  78.1700039  53.6500025 100.5800056  76.7700052  54.5400047
 101.1200047  76.7200041  52.8700018  98.5300064  77.0600033  51.6600037
  98.9100075  76.4400053  50.8300018  99.0400028  78.0500031  51.6500044
  97.1100044  77.4900055  51.4800024  96.3800049  76.6900015  51.2600040
  96.8400002  78.0200052  52.4200010  96.9600010  78.2200050  50.6600046
  97.5300026  74.2400026  52.7500010  96.7600060  73.9200020  53.6600018
  97.2700024  73.8400030  51.5200043  97.7300072  74.2300034  50.7300043
  96.1700058  72.8800058  51.2500048  95.3200054  73.3900023  51.6800022
  95.8800030  72.7500057  49.7200012  96.7900085  72.3300028  49.2300034
  94.7600079  71.7900038  49.4600010  93.8600063  72.1000051  50.0200033
  94.5200062  71.7300034  48.3700037  95.0300026  70.7500029  49.7600031
  95.6200027  74.0900040  48.9700031  96.2500000  74.8200035  49.5100021
  94.6200085  74.5600033  49.1100025  95.9600067  74.0200043  47.4800014
  95.8600044  74.9300051  46.8600035  97.0300007  73.7400055  47.3600006
  95.4200077  73.1900024  46.9900036  96.3300037  71.5300035  51.9900036
  95.4800034  70.9800053  52.6900005  97.5100040  70.9400034  51.8500042
  98.1100082  71.3000011  51.1300039  97.9400063  69.7400045  52.4600029
  97.2900009  68.9300013  52.1700048  99.3600082  69.4600010  51.9700003
  99.9600029  69.1000032  52.8300047  99.7700024  70.4600048  51.7300034
  99.5000076  68.6700010  50.6900024 100.5300045  68.7100029  50.2600002
  98.9200020  68.9700031  49.7900009  99.2100048  67.1600056  50.9400034
  98.6500072  66.7600012  51.9300032  99.6000004  66.2700033  50.0800037
  97.8800011  69.8600054  54.0100002  97.3500061  68.9300013  54.6400023
  98.2900047  71.0200024  54.6100044  98.6400032  71.7600012  54.0400028
  98.1100082  71.4000034  56.0600042  98.4700012  70.5600023  56.6400003
  98.8000011  72.6700020  56.5200043  98.5300064  73.4600019  55.7800007
  99.8700047  72.3900032  56.6000032  98.4100056  73.2600021  57.9300022
  98.4900093  72.5500011  58.7800026  97.3400021  73.5400057  57.8700018
  99.0900040  74.5600033  58.2800007  98.8700008  75.5600023  57.5700045
  99.9600029  74.5800018  59.1900015  96.6500092  71.5400028  56.4300013
  96.2900066  71.0100031  57.4400043  95.8600044  72.1000051  55.6100035
  96.1000061  72.2600031  54.6600008  94.4600010  72.2400045  55.8600044
  94.3900013  72.5600052  56.8900013  93.8100052  73.0800056  54.7100019
  94.1000080  72.5900030  53.7500048  94.3200016  74.0700054  54.7800016
  92.2399998  73.3900023  54.9900007  91.7600060  72.4100018  54.7900009
  91.9900036  73.8000011  56.4200020  92.2800064  72.9900026  57.1300030
  92.5000000  74.7600031  56.6300011  90.9000015  73.9700031  56.5800047
  91.6200066  74.3900013  54.0200043  91.9700050  75.4200029  54.2600012
  91.8100071  74.2000055  52.9500008  90.5200005  74.4300032  54.2000008
  93.6700058  70.9100056  55.8500004  92.8100014  70.7000017  56.7000008
  93.9700031  70.0500011  54.8800039  94.6800041  70.3200054  54.2300034
  93.4700012  68.7000036  54.7500038  92.3900032  68.7700033  54.7600031
  93.9400005  67.9200029  53.4300041  93.5800076  66.8800020  53.6100006
  95.0500011  68.0100012  53.4300041  93.3300018  68.5400009  52.1300030
  93.5400009  69.6300030  52.1100044  93.8400078  67.9100037  50.9000015
  93.5400009  66.8500042  50.7400036  93.4700012  68.5000038  50.0400019
  94.9400043  67.9800034  51.0500002  91.7600060  68.5200024  52.1800041
  91.4100075  67.4700022  52.3000002  91.4400005  69.1200018  53.0600023
  91.3500023  68.8900042  51.2200022  93.8600063  67.8100014  55.9300041
  93.0600071  67.0100021  56.4300013  95.1400089  67.9600048  56.3300037
  95.8000088  68.5000038  55.8200026  95.6700039  67.4300051  57.5900030
  95.5300045  66.3600016  57.5800037  97.2000027  67.6200008  57.6000023
  97.3600006  68.6700010  57.2800016  97.6700020  66.9700050  56.8300009
  98.0800056  67.4900055  58.8100004  98.8700008  66.3500023  58.9200020
  98.8700008  65.5100012  58.2300043  99.8000050  66.5500021  59.9200010
 100.5400085  66.0100031  60.2700043  99.6400070  67.8000021  60.4800034
  98.5300064  68.4000015  59.8300028  98.1800079  69.7000027  60.2100039
  97.4100018  70.1900053  59.6300030  99.0600014  70.3800011  61.0100031
  99.1400051  71.4600039  60.9800053 100.4300022  68.4100056  61.4500046
 101.2900066  67.9500055  61.9200039 100.0700092  69.7400045  61.6800022
 100.8100033  70.3200054  62.2200012  94.9500084  67.7900028  58.9200020
  94.5500088  66.8800020  59.6500015  94.7399998  69.1000032  59.2400026
  95.1900005  69.7800016  58.6600018  93.7900066  69.6500015  60.2100039
  94.2700005  69.4500017  61.1600018  93.4800053  71.2100029  60.0300026
  92.6500034  71.4600039  60.7200050  93.1500053  71.4400053  58.9900017
  94.6000004  72.1800041  60.4800034  95.8500004  71.8900013  61.1300039
  95.9900093  70.8400011  61.3600016  96.7900085  72.8000021  61.3100052
  97.6700020  72.5700045  61.8900013  96.6500092  74.1700029  60.8900023
  97.4900055  74.8100042  61.1400032  94.4800091  73.5800028  60.0100040
  93.6300087  73.8800049  59.4100046  95.4900074  74.5100021  60.2300024
  95.4400063  75.5200052  59.8600006  92.3900032  68.9100027  60.1400042
  91.8700027  68.3600044  61.0700035  91.7700005  68.9400053  58.9100027
  92.1500015  69.5400047  58.2100010  90.4700089  68.3300018  58.6700010
  89.7800064  68.8600016  59.3200016  89.9200058  68.6000013  57.2300005
  90.8100033  68.7300014  56.5800047  89.0799999  67.4700022  56.5700006
  88.9600086  67.7100039  55.4900026  89.7200012  66.5600014  56.6400003
  88.1300068  67.2000027  57.0700026  89.3800068  70.0200033  57.2400045
  90.0800037  70.7000017  57.7700043  88.4200001  69.9400043  57.8000021
  89.2600060  70.5900049  55.8600044  90.2900028  70.5900049  55.4500008
  88.7000084  69.8800039  55.2000046  88.8900089  71.6300011  55.8900023
  90.4700089  66.8400049  59.0400028  89.4900036  66.3300037  59.5700026
  91.5500069  66.0700035  58.6400032  92.2000027  66.4800024  58.0100012
  91.5900040  64.6200037  59.0300035  90.6599998  64.1900015  58.6900043
  92.8600025  63.9800024  58.2900047  93.0800056  63.0000019  58.7800026
  93.7900066  64.5700026  58.4400034  92.6400089  63.6900043  56.7700005
  92.7000046  64.5900011  56.1300039  91.6200066  63.2600021  56.6300011
  93.7300014  62.6800013  56.2500048  93.5900021  62.4400043  55.1700020
  93.8300037  61.7200041  56.7900038  94.9700069  63.4600019  56.4500046
  95.5100060  63.3300018  57.2900009  95.6200027  64.1300011  55.4900026
  95.0900078  64.3900013  54.3400049  94.1000080  64.5000029  54.2200041
  95.5800056  64.8800039  53.6200047  96.8300056  64.6300030  55.8100033
  97.3700047  64.1300011  56.4900017  97.2800064  65.1200008  55.0700045
  91.6400051  64.4000053  60.5700016  91.0400009  63.4400034  61.0300016
  92.1700001  65.3400040  61.2600040  92.5500011  66.1300039  60.7900047
  92.2900009  65.3900051  62.7700043  91.9600010  66.3400030  63.1800032
  91.6900063  64.5800018  63.1500053  93.7100029  65.2200031  63.1500053
  94.0200043  65.0600052  64.3600035  94.6500015  65.1300049  62.1600008
  94.4099998  65.3000021  61.2100029  96.0300064  64.8400021  62.4600029
  96.1300087  63.8300037  62.8400040  96.8600082  64.6300030  61.2000036
  97.9300022  64.5000029  61.4500046  96.8100071  65.5800009  60.6400013
  96.3100052  63.5000038  60.3200006  95.4600048  63.9500046  59.7800016
  96.0500050  62.7900028  61.1400032  97.3400021  62.9200029  59.3900013
  97.2400093  63.0600023  58.1600046  98.3500004  62.4500036  59.9200010
  96.7700005  65.8200026  63.2700014  96.5100002  67.0200014  63.2700014
  97.7500057  65.2800035  64.0100050  97.8400040  64.2900038  63.9600039
  98.6500072  66.0400009  64.9300051  98.6200047  67.0900011  64.6900034
  98.3800030  65.8500051  66.4000034  99.0700054  66.5000010  66.9800043
  98.3700085  64.4900036  66.8700027  98.7700081  64.5600033  67.7400017
  96.9900036  66.4600039  66.6200018  97.0300007  67.5000048  66.2200022
  96.1700058  65.8600044  66.1700010  96.8100071  66.7200041  67.6800013
 100.1200008  65.6000042  64.7000027 101.0500050  65.9400034  65.4500008
 100.2900028  64.9300051  63.5700035  99.5700073  64.8000050  62.9000044
 101.4900017  64.3000031  63.1700039 102.1300030  64.1100025  64.0300035
 101.1800003  62.8200006  62.6600027 100.6100082  63.0400038  61.7300034
 100.6200027  62.4400043  63.5400009 102.4200058  62.0700026  62.2600031
 103.3700085  62.5500011  61.6800022 102.3900032  60.7700014  62.7000046
 101.7100048  60.4100037  63.3400011 103.1200027  60.1600027  62.4200010
 102.3600006  65.1500034  62.1500015 102.0200062  65.3500032  60.9800053
 103.5500050  65.5300045  62.6100016 103.7500095  65.2600050  63.5500050
 104.5200062  66.3600016  61.9200039 104.0000057  67.0800018  61.3000011
 105.1900005  66.8000031  62.6400042 105.2700043  65.5600023  60.8600044
 105.7400036  66.1800051  59.9500036 105.3000069  64.2400026  60.9100008
 104.5700073  63.8600016  61.4700031 105.9700012  63.4800053  59.8600006
 106.7900085  64.0800047  59.5000029 106.3400078  62.0500040  60.3400040
 106.7400074  61.3500023  59.5700026 105.4300022  61.6500044  60.8500051
 107.3300076  62.1900034  61.4500046 106.9400024  62.0600033  62.6300049
 108.5700035  62.5300026  61.0400009 108.7800026  62.3100042  60.0900030
 109.2900085  62.7100039  61.7100048 105.1100063  63.3100033  58.6800051
 105.6700039  63.2000017  57.5800037 103.8400078  63.3100033  58.7700033
 103.3700085  63.3900023  59.6500015 102.9100037  63.2100010  57.6400042
 103.1400013  62.3500013  57.0200014 101.4000034  63.2900047  57.9300022
 101.1000061  64.3000031  58.2800007 101.0600090  62.2600031  58.7500048
 100.2400017  62.5600052  59.1300011 100.5700016  63.0300045  56.6100025
  99.5000076  62.9500008  56.8900013 100.7000065  63.8100052  55.8200026
 100.9100056  62.0800018  56.1300039 103.0900002  64.4200039  56.7100048
 103.2400036  64.3000031  55.5100012 103.2700062  65.6500053  57.2200012
 103.1100082  65.8100033  58.1900024 103.7700081  66.7300034  56.4500046
 103.1700039  66.7900038  55.5600023 103.4400082  68.1400013  57.1300030
 103.7000084  68.9800024  56.4500046 104.0500069  68.1000042  58.0600023
 101.9900036  68.4400034  57.5200033 101.6600037  67.7400017  58.3200026
 101.9000053  69.8100042  58.2900047 102.0900059  70.5900049  57.5200033
 100.9300041  69.9300051  58.8200045 102.7300072  69.9000025  59.0200043
 100.9000015  68.3400011  56.4400005  99.8800087  68.4800053  56.8300009
 101.1000061  69.0100050  55.5700016 100.7700062  67.3100042  56.0400009
 105.2200031  66.6200018  55.8900023 105.4800034  66.9100046  54.7400045
 106.1000061  66.1700010  56.8000031 105.8100033  66.1100054  57.7500010
 107.5200081  66.0700035  56.3600016 107.7000046  67.0700026  55.9900045
 108.5300064  65.8400011  57.5400019 109.4500065  65.4400015  57.0600033
 107.9900074  65.1300049  58.2000017 109.0500069  67.0600033  58.3500051
 110.0500011  67.3100042  57.9200029 108.0700016  68.2500029  58.3200026
 108.6000061  69.1300011  58.7500048 107.9700089  68.7000036  57.3100042
 107.0700073  68.0000019  58.7300014 109.3500042  66.5700054  59.7500038
 108.4600067  66.0300016  60.1400042 110.2600098  65.9300041  59.7800016
 109.5600033  67.5200033  60.2800035 107.8700066  65.0300026  55.3000021
 108.6400032  65.2900028  54.3500042 107.1500015  63.8600016  55.3300047
 106.7100048  63.7100029  56.2100029 107.1300030  62.8000021  54.3000031
 108.1300068  62.5400019  54.0000010 106.4400005  61.5700006  54.9100018
 106.3300037  60.8400011  54.0700006 105.4500008  61.9500017  55.2400017
 107.1200085  60.9900045  56.1100006 108.2800007  61.1200047  56.4400005
 106.2900066  60.1900005  56.8300009 105.3900051  59.9700022  56.4500046
 106.6600037  59.8900032  57.7100039 106.4100075  63.2500029  53.0700016
 106.4900017  62.5100040  52.0500040 105.6600094  64.3600035  53.0100012
 105.5900097  64.9300051  53.8300037 105.0900078  65.0500011  51.8500042
 105.0100040  64.4100046  50.9900045 103.6400032  65.4000044  52.2000027
 103.2000065  65.9500027  51.3500023 103.5400009  65.9400034  53.1700039
 102.7500057  64.1700029  52.2800016 103.1300068  63.5700035  53.1400013
 102.8400040  63.5500050  51.3600016 101.3700008  64.6700048  52.6600027
 101.3900089  64.9600029  53.7300014 101.1700058  65.6200027  52.1200037
 100.1900005  63.7600040  52.5000048  99.1800022  64.1100025  52.7900028
 100.3700066  62.7700043  52.9900026  99.9400043  63.5200024  51.0600042
 100.8100033  63.1600046  50.6100035  99.1500092  62.8500032  51.0400009
  99.6100044  64.4100046  50.6300020 105.8700085  66.3100052  51.4400005
 105.5100060  67.0300055  50.4800034 106.9900036  66.5200043  52.0800018
 107.3700047  66.0000038  52.8300047 107.9400063  67.6100016  51.7900038
 108.7100029  67.4900055  52.5400019 108.5300064  67.6100016  50.3400040
 107.9000092  67.9200029  49.4700003 108.9800072  66.6000032  50.2700043
 109.7700024  68.5300016  50.3500032 110.7200050  67.9900026  50.9600019
 109.7500038  69.7600031  49.7900009 108.8400078  70.1400042  49.6400023
 110.5500031  70.3500032  49.6800041 107.2500038  68.9800024  52.1800041
 107.4500084  69.9500036  51.4800024 106.5100098  69.1000032  53.2400036
 106.2000084  68.3200026  53.7700033 105.8200073  70.3100014  53.6900043
 106.0000038  71.0900021  52.9700041 104.2800045  70.0500011  53.8000011
 104.1200066  69.2200041  54.5300007 103.7300014  71.3900042  54.3600035
 103.9900017  72.2700024  53.7300014 102.6300049  71.2800026  54.3600035
 104.0600014  71.6200018  55.4000044 103.7100029  69.6700048  52.4800014
 102.6000023  69.7600031  52.4400043 104.1200066  70.4100037  51.7600012
 103.9500046  68.6600018  52.0800018 106.3900089  70.6400013  55.0100040
 106.2700081  69.9900055  56.0200024 107.1600056  71.7300034  55.1200008
 107.4200058  72.0800018  54.2300034 107.9700089  72.0300055  56.3000011
 108.1800079  71.1200047  56.8500042 109.3600082  72.3800039  55.8000040
 110.0100040  72.5400019  56.6900015 109.1900063  73.3100033  55.2200031
 110.0300026  71.2000036  55.0200033 109.3400097  70.9400034  54.1800022
 110.0000095  70.4100037  55.7900047 111.4300060  71.4100027  54.6600008
 111.9700050  71.6000032  55.6200027 111.5200043  72.3000050  54.0000010
 111.8600082  70.1400042  53.9400005 111.8100071  70.0700045  52.9400015
 111.9700050  68.9000034  54.4200039 112.0700073  68.6900043  55.6900024
 112.1300030  69.4200039  56.3800049 112.1700096  67.7600050  56.0300016
 112.0400047  67.8300047  53.5900021 112.0400047  68.0000019  52.6000023
 111.9000053  66.8600035  53.7500048 107.3800087  72.9500055  57.3300028
 108.0600071  73.3400011  58.2500029 106.1100006  73.2300043  57.2800016
 105.5400085  72.7500057  56.6200018 105.4100037  74.3400049  57.9400015
 105.8500004  75.3000021  57.7200031 103.9000034  74.4200039  57.5700045
 103.3600044  73.4700012  57.7900028 103.3100033  75.5200052  58.5100031
 102.4400043  76.0500050  58.0700016 103.0300045  75.0300026  59.4700050
 104.0400028  76.3200045  58.7400007 103.7000084  74.7600031  56.1200047
 104.5200062  74.4100046  55.4600048 103.8700008  75.8500051  55.9900045
 102.2800064  74.4200039  55.5800009 101.5500069  74.7300053  56.3600016
 102.0300007  74.9300051  54.6200037 102.2200012  73.3100033  55.5000019
 105.5300045  74.3100023  59.4400024 105.7500076  75.2800035  60.2000046
 105.4500008  73.0600023  59.9500036 105.0900078  72.3400021  59.3600035
 105.6200027  72.6600027  61.3000011 105.4300022  73.5100031  61.9400024
 104.4700050  71.7100048  61.5600014 104.6300030  71.1700010  62.5200033
 104.3400097  70.9300041  60.7900047 103.1200027  72.3300028  61.6600037
 102.1900082  72.3900032  60.6700039 102.1700096  71.8000031  59.7700024
 101.1000061  73.1200027  61.1800051 100.4500008  73.6500025  60.6800032
 101.3600063  73.5300016  62.4300051 102.6000023  73.0500031  62.8000021
 103.1100082  73.3100033  64.0400028 104.1100025  72.9700041  64.2600012
 102.3900032  74.0900040  64.9800014 102.8100014  74.4500017  65.9100008
 100.5200005  74.1600037  63.3500051  99.5300007  74.5600033  63.2000017
 101.0700035  74.3600035  64.6500015 100.5100060  74.9500036  65.3600025
 106.9500065  72.0100021  61.6500044 107.0800018  71.5400028  62.7400017
 107.9300022  71.9200039  60.7400036 107.8800011  72.2500038  59.8000050
 109.2700005  71.3300037  61.0600042 109.1500092  70.2900028  61.3400030
 110.1500034  71.3400030  59.7500038 110.0700092  72.3000050  59.1900015
 109.6700096  70.7500029  58.9500046 111.5900040  70.8500051  60.0700045
 111.6600037  70.0600052  60.8400011 112.0900059  71.8300056  60.2500010
 112.3600006  70.3300047  58.8600016 112.0500088  70.7200050  57.7600050
 113.0700016  69.3600035  59.0800047 110.0400066  71.9100046  62.2900009
 110.3400040  71.1900043  63.2400036 110.2300072  73.2700014  62.3500013
 109.8100090  73.9000034  61.7100048 111.1600018  73.8800049  63.2900047
 112.1000099  73.3700037  63.1700039 111.4300060  75.4200029  62.8400040
 112.3700047  75.8100033  63.2900047 111.6100025  75.4000044  61.7400026
 110.5300045  76.0200024  63.1100035 110.6100082  73.9400053  64.7400045
 111.2600040  73.8100052  65.7600021 109.2500019  73.9000034  64.8100042
 108.7200069  73.8700056  63.9600039 108.4500027  73.9200020  65.9300041
 109.0600014  74.4500017  66.6500044 107.0600033  74.6000051  65.7500029
 106.5700054  74.4100046  66.7300034 106.4800072  74.2000055  64.8900032
 107.1900082  76.1800051  65.6100035 108.2200050  76.7500019  65.9200048
 106.1500072  76.8400049  65.1300049 105.5100060  76.3600016  64.5200014
 106.2800026  77.8000021  64.8700047 108.1500053  72.4600029  66.4600039
 107.3300076  72.2400045  67.3200035 108.8000011  71.4500046  65.9200048
 109.3200016  71.5400028  65.0700045 108.5200024  70.1100016  66.2800026
 107.9200077  70.0300026  67.1800041 108.0600071  69.6300030  65.4300022
 109.8100090  69.5200014  66.6400051 109.9000072  68.3100033  66.9400024
 110.9500027  70.3200054  66.5200043 110.8700085  71.3100052  66.4800024
 112.2700024  69.8800039  66.9000053 112.4100018  68.9400053  66.4000034
 113.3300018  70.8700037  66.4900017 114.2600060  70.4300022  66.8900013
 113.2600021  72.1600056  67.0700026 112.6000023  72.5700045  66.5000010
 113.4700012  70.9400034  64.9200010 112.4600029  71.2400055  64.5800018
 114.2200089  71.6100025  64.4500017 113.7500095  69.9200010  64.5700026
 112.4000072  69.6800041  68.3900023 111.7500019  70.3900051  69.1700029
 113.2300091  68.6700010  68.7500048 113.7800026  68.2700014  68.0300045
 113.6200047  68.1200027  70.0700045 112.8000069  67.6600027  70.5900049
 114.8000050  67.0700026  69.9000025 115.5300045  67.7100039  69.3600035
 114.5700073  66.2700033  69.1700029 115.2000046  66.3100052  71.1900043
 115.6800079  66.9200039  71.9900036 115.8900070  65.5300045  70.8000040
 114.0900040  65.4400015  71.8200016 114.6000099  64.7600031  72.5300026
 113.5800076  64.8600054  71.0200024 113.2500076  66.3400030  72.6700020
 113.6400032  67.1400023  73.1200027 111.9800091  66.0300016  73.0400038
 111.4800072  66.6300011  74.0800047 112.1400070  67.1900034  74.5900059
 110.5300045  66.6100025  74.3800020 111.1800098  65.0600052  72.5200033
 111.4500046  64.4500017  71.7800045 110.2300072  65.0700045  72.8400040
 114.0900040  69.2100048  70.9700012 113.7300014  69.3200016  72.1300030
 114.9300098  70.1500034  70.4400015 115.4100037  70.1100016  69.5700026
 115.2600098  71.3100052  71.2700033 115.5800056  70.9000015  72.2200012
 116.5200043  72.0800018  70.7300043 116.3600063  73.0900049  71.1700010
 116.5900040  72.2500038  69.6300030 117.9300022  71.5100050  71.0900021
 118.0100060  71.5600014  72.2000027 118.6900043  72.1400023  70.5800056
 118.1300068  70.1200056  70.6100035 118.2000065  69.2300034  71.4700031
 118.2500076  70.0100040  69.3800020 114.0200043  72.2500038  71.3600016
 113.8200092  72.7400017  72.4800014 113.1700039  72.5200033  70.3500032
 113.3100033  72.1300030  69.4500017 111.9500065  73.3500051  70.5700016
 112.2600079  74.2900038  71.0200024 111.3200092  73.5800028  69.2400026
 110.9400082  72.6900053  68.7100029 112.1200085  74.0800047  68.6400032
 110.2500057  74.6200037  69.4300032 108.9200020  74.2200041  69.4600010
 108.8800049  73.1600046  69.2600012 107.9000092  75.1400042  69.6300030
 106.8600082  74.8900032  69.6700048 108.2400036  76.5000057  69.6400023
 107.5200081  77.3000050  69.7700024 110.5500031  75.9800053  69.3700027
 111.5700054  76.2600040  69.1600037 109.5200062  76.9600058  69.4100046
 109.7500038  78.0200052  69.4200039 110.9400082  72.6700020  71.4900017
 110.2000046  73.4100056  72.2300053 110.8400059  71.3100052  71.4800024
 111.2800026  70.7400036  70.8000040 110.0400066  70.5300045  72.4400043
 109.0000057  70.8400011  72.4700022 109.9800014  69.0200043  72.0100021
 109.4100094  68.4000015  72.7400017 111.0100079  68.6100054  71.9500017
 109.1700077  68.7500048  70.7000017 109.3700027  69.5900011  70.0000048
 109.5600033  67.4000025  70.1200056 109.5000076  66.6500044  70.9400034
 108.8700008  67.1400023  69.2900038 110.5500031  67.5200033  69.6500015
 107.6900005  68.7500048  70.9800053 107.3800087  69.7700024  71.2900019
 107.0800018  68.4400034  70.1100016 107.5000095  68.0200052  71.7900038
 110.5800056  70.5700016  73.8700056 109.8300076  70.8900023  74.7700024
 111.8900013  70.3700018  74.1200018 112.4600029  70.2300024  73.3200026
 112.5700092  70.5700016  75.3800058 112.0600033  69.9300051  76.0800028
 114.1200066  70.2300024  75.2800035 114.6200085  70.4400015  76.2600040
 114.5000076  70.8000040  74.4000053 114.2600060  68.7200022  75.1800013
 113.2800007  68.0400038  75.5000019 115.3100014  68.1400013  74.9200058
 112.4200058  71.9300032  76.0400057 112.0100021  72.0000029  77.2000027
 112.5300026  72.9600048  75.2100039 112.7100086  72.8100014  74.2400026
 112.2000027  74.3500042  75.6300020 112.7500057  74.5700026  76.5300035
 112.8300095  75.2700043  74.5800018 112.6600075  76.3200045  74.9000025
 112.4500084  75.2400017  73.5300016 114.3200016  75.1100016  74.5000029
 115.0400066  74.5200014  75.2700043 114.9500084  75.8100033  73.5000038
 114.3600082  76.3800049  72.9300022 115.9400082  75.9100056  73.5000038
 110.7000065  74.6400023  75.8900023 110.3500080  75.4800034  76.7200041
 109.7800064  73.8500023  75.3100014 110.0200081  73.1700039  74.6200037
 108.3700085  73.9000034  75.5600023 108.1700039  74.9200058  75.8600044
 107.5100040  73.7500048  74.2600012 106.5300083  73.2700014  74.5000029
 108.0400085  73.1700039  73.4800053 107.0900059  75.0900030  73.6100054
 106.7600060  74.8200035  72.5800037 108.1000042  75.5500031  73.4900045
 106.0900021  75.9600019  74.3100023 105.9600067  76.9300032  73.7900019
 106.5200043  76.2000036  75.3100014 104.7900009  75.2300024  74.2600012
 104.7400093  74.4600058  73.6200047 103.6800003  75.6100035  74.8500013
 103.6400032  76.7700052  75.5500031 104.5000076  77.1900034  75.8500051
 102.7800083  76.9900036  76.0200024 102.6100063  74.8300028  74.7400045
 102.8000069  73.9400053  74.3100023 101.7200089  75.1000023  75.1000023
 107.8900051  73.0600023  76.7100048 106.6800022  73.0400038  76.9400024
 108.8300037  72.3800039  77.4200058 109.7900009  72.5500011  77.2100019
 108.6400032  71.5500021  78.5800028 109.6100044  71.1700010  78.8600016
 108.0100060  72.3100042  79.7200060 107.8800011  71.6000032  80.5600071
 107.0000076  72.6500034  79.4100046 108.8300037  73.5400057  80.2300072
 108.1200027  74.0800047  80.8900070 109.0800095  74.2300034  79.4000053
 110.1100063  73.1600046  81.0599995 109.9200058  72.2700024  81.6900063
 111.0400009  72.8200054  80.5500031 110.6300068  74.2400026  81.9900036
 111.4300060  73.9000034  82.6900005 109.7700024  74.4700050  82.6600075
 111.0800076  75.5300045  81.3500023 111.6300011  76.0800028  82.0300007
 111.6800022  75.3800058  80.5100060 110.2900028  76.1900043  81.2100029
 107.9900074  70.2000046  78.3300018 107.2600079  69.6700048  79.1600037
 108.1200027  69.7500038  77.0600033 108.6200047  70.2900028  76.3900042
 107.4100018  68.6100054  76.4400053 106.6500092  68.2700014  77.1300030
 106.8900013  69.0100050  75.0800037 106.2800026  68.1500053  74.7400045
 107.6500034  69.2200041  74.3000031 105.8900070  70.1600027  75.0300026
 106.4300060  71.0700035  75.3800058 105.3200054  70.3100014  73.5500050
 104.3500042  70.8600044  73.5400057 106.0000038  70.9800053  72.9900026
 105.2900028  69.2900038  73.1100035 104.7500038  70.1100016  75.9900045
 104.0200043  69.3100023  75.7500029 105.1400089  70.0000048  77.0300055
 104.2000008  71.0800028  75.9700060 108.4300041  67.5000048  76.3300037
 108.8100052  67.1700048  75.1900053 108.8800049  66.8700027  77.4500036
 108.5100079  67.2600031  78.2900047 109.9700069  65.9700012  77.6200056
 110.8000088  66.2400055  76.9800043 110.4900074  66.1100054  79.0800047
 111.3500023  65.4300022  79.2800045 109.6900082  65.8400011  79.8000050
 110.9700012  67.4700022  79.5000029 112.0700073  68.0000019  78.8400030
 112.6800060  67.4000025  78.1800032 112.6300049  69.2600012  79.2500019
 113.5200024  69.5700026  78.7300014 111.9800091  70.0100040  80.2000046
 112.6300049  70.8000040  80.5700016 110.3500080  68.2200050  80.5600071
 109.4700050  67.8600025  81.0700035 110.9200096  69.4700050  80.8500004
 110.4300022  70.0400019  81.6300011 109.6200085  64.5300007  77.1800041
 110.4700089  63.7800026  76.6800022 108.3400059  64.1400051  77.3300028
 107.6400089  64.7500038  77.7000046 107.8200054  62.8000021  77.0600033
 108.7600040  62.3000050  76.9300032 107.1500015  62.1400023  78.2100058
 106.8900013  61.1000013  77.9100037 106.2500095  62.7200031  78.5300016
 108.8600063  61.0500050  79.7000027 107.9300022  62.0800018  79.5100021
 109.3800068  61.2500048  80.9300041 110.0800037  60.5200052  81.3300037
 108.8600063  62.3200035  81.5400028 109.1100025  62.4900007  82.4900055
 107.8800011  62.8500032  80.6500053 107.3300076  63.7700033  80.8200073
 107.0400047  62.7200031  75.7700014 106.1500072  61.9000006  75.4800034
 107.3000050  63.6600018  74.8500013 108.1200027  64.1800022  75.0700045
 106.6800022  63.9200020  73.5800028 105.7700062  63.3500051  73.4800053
 106.2600040  65.4000044  73.4500027 107.1500015  66.0400009  73.6300039
 105.5500031  65.5300045  74.3000031 105.5800056  65.7800055  72.1400023
 106.2500095  65.5800009  71.2700033 105.6500053  66.8800020  72.2200012
 104.1100025  65.3400040  71.9200039 104.1600037  64.2500019  71.7200041
 103.7300014  65.9200048  71.0600042 103.2400036  65.6600046  73.1300020
 103.0700016  64.8200035  73.6500025 102.7000046  66.8000031  73.5000038
 102.9000092  67.9900026  72.8600025 103.1900024  68.1000042  71.9100046
 102.4400043  68.7700033  73.2800055 102.0500088  66.9600010  74.6400023
 102.0800018  66.1900043  75.2800035 102.1200085  67.7900028  75.1800013
 107.6700020  63.5000038  72.5600052 108.7800026  63.9300013  72.5700045
 107.3000050  62.5400019  71.7200041 106.4400005  62.0300007  71.7500019
 108.1400013  62.1100044  70.5900049 109.1000080  61.7700052  70.9500027
 107.4500084  60.9200048  69.9500036 106.4500046  61.2800026  69.6200037
 107.2700024  60.1500034  70.7300043 108.1900024  60.3100014  68.7500048
 109.2500019  60.0600052  68.9700031 108.0200005  60.9100008  67.8300047
 107.4700069  59.0300035  68.3800030 107.1200085  58.1900024  69.2600012
 107.1200085  58.8100004  67.1900034 108.2900047  63.1400013  69.5500040
 107.4000072  63.9600039  69.3000031 109.4600010  63.1800032  68.9400053
 110.2800083  62.6800013  69.2100048 109.6900082  64.1800022  67.8700018
 109.3900013  65.0800037  68.3900023 111.1600018  64.1800022  67.4400043
 111.5100098  63.2500029  66.9600010 111.4200020  65.3100014  66.4000034
 111.3200092  66.2900019  66.9200039 112.4700069  65.3900051  66.0600042
 110.7100010  65.2600050  65.5500031 112.1000099  64.5500040  68.6400032
 113.1800079  64.4600010  68.4200048 111.8900013  65.5700016  69.0200043
 111.9100094  63.7000036  69.3300056 108.6900043  64.2000008  66.7400026
 108.4500027  63.3100033  65.9900045 108.1200027  65.3600025  66.4500046
 108.5000038  66.1500025  66.9400024 107.1600056  65.6300020  65.4400015
 107.1200085  66.7100048  65.4400015 107.4800014  65.2900028  63.9700031
 106.7300034  65.7800055  63.3000040 107.3900032  64.1900015  63.9100027
 108.8200092  65.7100010  63.4200048 109.8000050  64.9700022  63.1900024
 108.9900017  67.0500040  63.2600021 108.2000065  67.6300049  63.4500027
 109.8700047  67.5300026  63.1900024 105.7900047  65.2400017  65.8400011
 104.8200035  65.3800011  65.0800037 105.6000042  64.8100042  67.1500015
 106.3800049  64.5000029  67.7000046 104.2700005  64.7700024  67.6900053
 103.5400009  64.5200014  66.9300032 104.2300034  63.7700033  68.8500023
 104.9000072  64.1700029  69.6400023 104.7300053  62.8100014  68.6100054
 102.8500080  63.5800028  69.5000029 102.0100021  64.4700050  69.4500017
 102.6400089  62.5100040  70.1900053 104.0000057  66.2200022  68.1100035
 104.8400021  66.8200016  68.8400030 102.8700066  66.8300009  67.6900053
 102.2400093  66.3600016  67.0800018 102.6000023  68.2700014  67.8500032
 103.5300064  68.6900043  68.1900024 102.1900082  69.0300035  66.6000032
 102.0400047  70.1200056  66.8000031 101.2300014  68.6200047  66.2300014
 103.1800079  68.8800049  65.4500008 103.4100056  67.7900028  65.3500032
 102.7800083  69.5200014  64.1100025 101.7700005  69.0500021  64.0300035
 102.7800083  70.6200027  64.2100048 103.3900070  69.2900038  63.2000017
 104.5500088  69.5100021  65.8300018 104.2200089  70.3900051  66.4200020
 105.1800060  68.8000011  66.4100027 105.1000023  69.8300028  64.9100018
 101.6100025  68.4700012  69.0100050 101.2200069  69.5700026  69.3300056
 101.1900043  67.4000025  69.7600031 101.2600040  66.4700031  69.4100046
 100.1700020  67.6500034  70.7700014 100.0400066  66.7300034  71.3100052
 100.4700089  68.4700012  71.4000034  98.8200092  68.1400013  70.2400017
  98.5800076  68.1600046  69.0000010  97.8800011  68.5500050  71.1100054
  98.1900024  68.6500025  72.5000048  98.2200050  67.6700020  73.0300045
  99.1100025  69.2200041  72.7300024  96.4600086  68.8100052  70.7700014
  96.0700035  68.0500031  70.1200056  95.8500004  68.8500023  72.2400045
  95.6500053  67.8300047  72.6300049  94.9000072  69.4300032  72.2800016
  97.0300007  69.3600035  73.0800056  96.9400024  68.9800024  74.1200018
  97.1700001  70.4600048  73.1000042  96.1900043  70.2000046  70.0600052
  95.2900028  70.9900045  70.4400015  96.9700050  70.4700041  69.0300035
  97.7500057  69.8700047  68.8900042  96.9099998  71.5600014  68.0600023
  97.0900059  72.5100040  68.5400009  98.0700016  71.5200043  67.0200014
  97.7600002  72.2500038  66.2400055  99.3400002  72.0000029  67.7300024
  99.1100025  72.8600025  68.3900023  99.6000004  71.1800051  68.4400034
 100.2100086  72.2000027  67.0800018  98.1800079  70.1800013  66.2900019
  97.2100067  69.7400045  66.0000038  98.7400055  69.4600010  66.9200039
  98.9800072  70.4600048  65.0500011  99.9200058  71.0300016  65.2300024
  99.3100071  69.5000029  64.5900011  98.3100033  71.0200024  64.3800020
  95.5200005  71.5800047  67.3400021  94.6700001  70.7000017  67.4800014
  95.4000092  72.6300049  66.4500046  96.0300064  73.3900023  66.5400028
  94.3300056  72.8100014  65.5000019  93.6700058  73.5900021  65.8700037
  95.0100040  73.2500029  64.1800022  94.3300056  73.1900024  63.3100033
  95.8800030  72.5900030  63.9600039  95.5100060  74.6700048  64.3100023
  94.6600056  75.8000040  64.2300034  93.6100006  75.6700039  64.0200043
  95.2000046  77.0900059  64.1400051  94.5400047  77.9100037  63.8900042
  96.6100025  77.2700024  64.2900038  97.0200062  78.6300039  64.1800022
  96.7200089  78.8600016  63.3000040  96.9400024  74.8700047  64.4600010
  97.7300072  74.1400051  64.5700026  97.4300003  76.1900043  64.3500042
  98.4900093  76.3200045  64.5100021  93.4400082  71.6400051  65.2300024
  92.3300076  71.4500046  65.7800055  94.0700054  70.7100010  64.3700027
  94.9900055  70.8800030  64.0300035  93.5000038  69.4400024  63.9700031
  92.7700043  69.7500038  63.2400036  94.2900085  68.8400030  63.5500050
  92.7600002  68.5800028  64.9200010  91.6600037  68.1700039  64.6400023
  93.3900070  68.3500051  66.0900021  94.3200016  68.6700010  66.1900043
  92.7900028  67.5800037  67.1500015  92.4000072  66.6600037  66.7500019
  93.8900089  67.2100019  68.1500053  94.4600010  68.1200027  68.4300041
  94.5500088  66.4500046  67.6900053  93.5100079  66.6600037  69.5200014
  93.4200001  65.2700043  69.7800016  93.6600018  64.6000051  68.9700031
  93.0200005  64.8000050  71.0400057  93.0000019  63.7500048  71.2600040
  92.9100037  65.7600021  72.0500040  92.6400089  65.3500032  73.0100012
  93.2800007  67.5600052  70.5700016  93.3500004  68.6100054  70.3400040
  93.0300045  67.1300030  71.8800020  92.8900051  67.7700043  72.7300024
  91.5600014  68.3000040  67.7600050  90.5400085  67.7000046  68.1600046
  91.6499996  69.6600056  67.9100037  92.5200081  70.1200056  67.7300024
  90.5300045  70.4400015  68.4900045  90.3400040  69.9500036  69.4300032
  90.9700012  71.8600035  68.7400055  90.0900078  72.3400021  69.2400026
  91.1600018  72.3800039  67.7800035  92.1000004  72.0300055  69.7900057
  92.3400021  73.1100035  69.9000025  92.9300022  71.4500046  69.3400049
  91.6499996  71.4300013  71.0900021  90.4600048  71.5100050  71.4000034
  92.6600075  70.9100056  71.8500042  93.5700035  70.9100056  71.4300013
  92.6100063  70.8100033  72.8400040  89.2700005  70.3300047  67.6600027
  88.1900024  69.9400043  68.0900049  89.3800068  70.6200027  66.3400030
  90.2800083  70.9800053  66.1100054  88.3100033  70.5700016  65.3800011
  87.5699997  71.2900019  65.7000017  88.8300037  70.7400036  63.8800049
  88.1100082  70.3000021  63.1600046  89.7300053  70.0900030  63.7800026
  89.2500019  72.1400023  63.4900045  89.1400051  73.2000017  64.4300032
  88.7000084  73.1300020  65.4200029  89.5100021  74.3500042  63.8200045
  89.3300056  75.2500057  64.1600037  89.8700047  74.0700054  62.5000048
  89.7200012  72.7000046  62.2600031  89.7900009  72.1600056  60.9400034
  89.5700073  71.1200047  60.7600021  90.1400089  73.0300045  59.8700047
  90.1900005  72.6400042  58.8600016  90.3299999  74.8900032  61.4800024
  90.5500031  75.9100056  61.7700052  90.3999996  74.3600035  60.1600027
  90.7299995  74.9600029  59.3200016  87.5000000  69.2800045  65.4200029
  86.2700081  69.2800045  65.2700043  88.1400013  68.0800009  65.5300045
  89.1200066  68.0200052  65.6600046  87.4600029  66.8300009  65.4400015
  86.5000057  67.0200014  64.9900007  88.3100033  65.9200048  64.6100044
  87.6500034  65.1000023  64.2600012  89.2200089  65.5400038  65.1300049
  88.7400055  66.4600039  63.2200050  89.1600037  65.6100035  62.6300049
  89.5500088  67.2200012  63.2900047  87.7300072  67.1500015  62.3400021
  88.2700062  67.4300051  61.4100027  87.4400043  68.0600023  62.9000044
  86.5300083  66.2700033  62.1700048  85.8400059  66.2600040  62.8900051
  86.4800072  65.1900053  61.3800049  87.3700047  64.8500013  60.5000019
  88.2100010  65.3700018  60.3900051  87.0800018  64.1900015  59.8000050
  85.4500008  64.3900013  61.5200043  84.8000050  64.5700026  62.2600031
  85.4200077  63.5700035  60.9400034  87.3099995  66.1100054  66.8400049
  86.6900063  65.0600052  66.8700027  87.8000069  66.7700052  67.9500055
  88.2600021  67.6500034  67.9300022  87.8000069  66.1100054  69.1900015
  86.8200016  65.7100010  69.3900013  89.0200043  65.0700045  69.2700052
  88.8300037  64.5000029  70.2100039  89.9800014  65.6000042  69.4200039
  88.1800079  62.8500032  68.2600021  87.7000046  62.6300049  69.1100025
  89.0100002  64.0000010  68.1900024  88.3700085  62.1800041  67.1100044
  87.8000069  61.3100052  66.7700052  89.1900063  62.7700043  66.2900019
  89.7300053  63.8700008  67.0800018  90.5800056  64.4200039  66.7000055
  88.0100060  67.1000051  70.2900028  88.6800003  66.8400049  71.2600040
  87.3800087  68.3300018  70.3000021  86.8700027  68.6800051  69.5100021
  87.4700069  69.1600037  71.5000057  88.5300064  69.3500042  71.6200018
  86.7300034  70.5200052  71.0100031  85.6700039  70.2600050  70.8300018
  87.1000004  70.8200026  70.0100040  86.9700050  71.6700029  71.8300056
  86.2900066  71.7500019  73.1400013  86.0000038  70.7900047  73.5500050
  86.2800026  72.8800058  73.8300037  85.8400059  72.9900026  74.8100042
  86.8500042  74.0800047  73.3700037  86.7500019  75.0500059  73.8500023
  87.6400089  72.8400040  71.3800049  88.0900002  72.8300047  70.4000044
  87.5200081  74.0700054  72.1400023  87.9500008  75.0100040  71.7900038
  86.8700027  68.5000038  72.7600050  85.6700039  68.3300018  72.9100037
  87.6900005  68.2800055  73.7400055  88.5900021  68.6900043  73.6000013
  87.2900009  67.6400042  74.9900055  87.7000046  68.2700014  75.7700014
  86.2200069  67.5300026  75.1000023  87.9500008  66.3300037  75.1400042
  87.7400017  65.7600021  76.2600040  88.6800003  65.7900047  74.1500044
  88.8900089  66.2500048  73.2900047  89.4400024  64.5400047  74.2900038
  88.7600040  63.7900019  74.6600056  89.9200058  64.0600014  72.8700018
  90.4500008  63.0900049  72.9400015  89.0700054  63.8700008  72.1800041
  90.6400013  64.7500038  72.3700047  90.6300068  64.7000027  75.1800013
  91.2700081  65.7200050  75.2300024  91.0300064  63.6900043  75.9600019
  90.5300045  62.8300047  75.8500051  92.3300076  63.6100054  76.6200018
  92.4600029  64.5900011  77.0500040  92.4400043  62.6500034  77.7900028
  93.4700012  62.5600052  78.1900024  92.1300030  61.6600037  77.3700047
  91.4200020  62.8800011  78.9800024  91.2900066  61.8900013  79.4600058
  90.3999996  63.1600046  78.6400032  92.0600033  63.7100029  80.0600052
  92.3600006  64.9100018  79.7200060  92.1700001  63.2300043  81.1700058
  93.4700012  63.2600021  75.5800056  93.5700035  62.1400023  75.0400019
  94.4400024  64.2000008  75.4000044  94.4200039  65.0900030  75.8400059
  95.4500008  63.9900017  74.3900013  94.9500084  63.4600019  73.6000013
  96.2500000  65.3200054  74.0500021  96.9900036  65.4900026  74.8700047
  95.5800056  66.2000036  73.8800049  97.1300030  65.0800037  72.7700043
  96.6300011  65.4100037  71.5200043  95.6200027  65.7600021  71.4200020
  97.3500061  65.0200033  70.3100014  97.0100021  65.0700045  69.2900038
  98.6600018  64.4900036  70.5000019  99.4100094  64.2600012  69.2700052
 100.3300095  64.3300009  69.5400047  98.4000015  64.5300007  72.9000044
  98.8100052  64.3300009  73.8800049  99.2000008  64.3500042  71.7600012
 100.1600075  63.8500023  71.8000031  96.5000057  62.9000044  74.9100018
  96.9800091  63.0300045  76.0600042  96.8400002  61.9400024  74.0000057
  96.5400028  61.9000006  73.0500031  97.7700043  60.8300018  74.4300032
  98.0900002  60.8400011  75.4600048  97.1000004  59.4800043  74.2800045
  97.7100086  58.5900021  74.5300055  96.6200066  59.1800022  73.0000019
  96.0500050  58.4100008  72.9700041  96.0300064  59.3900013  75.3000021
  95.3700066  58.5300016  75.0300026  96.4600086  59.1000032  76.2800026
  95.5100060  60.3400040  75.5300045  99.0700054  60.9300041  73.6200047
 100.1100063  61.3600016  74.0800047  99.0100002  60.4900026  72.3400021
  98.2100010  59.9900007  72.0100021 100.1300049  60.6600046  71.4100027
 100.5100060  61.6600037  71.5300035 101.1800003  59.5200014  71.5500021
 101.5100002  59.7500038  72.5900030 102.0600033  59.6900034  70.8900023
 100.6000042  58.2000017  71.2900019  99.8500061  57.9400015  70.3900051
 100.9000015  57.2300005  72.1700048 101.4500046  57.4300051  72.9800034
 100.6000042  56.3200045  71.8800020  99.5100021  60.8600044  70.0700045
  98.2900047  60.7600021  69.8800039 100.3900051  61.1900043  69.0600014
 101.2400055  61.6300011  69.3400049  99.9000072  61.2000036  67.6800013
  99.0500069  61.8600035  67.5700045 100.9800053  61.8700027  66.7700052
 101.1300087  62.9200029  67.1000051 100.5700016  61.9200039  65.7400036
 102.3300076  61.1100006  66.7300034 102.0700073  60.1400042  66.2500048
 102.6600075  61.0000038  67.7800035 103.4900093  62.0400047  65.8600044
 104.7400093  60.7800007  65.7900047 105.4700089  60.8800030  64.9600029
 105.1800060  60.7800007  66.8000031 104.2000008  59.8300028  65.5900049
  99.4400024  59.8700047  67.0900011  98.7000084  59.9700022  66.1300039
  99.8000050  58.6800051  67.5600052 100.2500057  58.6000013  68.4500027
  99.4500065  57.3800039  67.0100021  99.3900013  57.4800014  65.9300041
 100.4800034  56.2500048  67.3100042 100.1400089  55.3700018  66.7200041
 100.5600071  55.9500027  68.3800030 101.8900013  56.6400003  66.7400026
 102.1500015  56.7500019  65.4100037 101.4000034  56.7100048  64.6300030
 103.3800030  57.0700026  64.9300051 103.5900021  57.1700048  63.8800049
 104.3900013  57.3400021  65.8700037 105.7000065  57.6700020  65.3900051
 106.1900043  57.9600048  66.1600018 102.8900051  56.9400024  67.6700020
 102.7400017  57.0400047  68.7300014 104.1600037  57.4000025  67.2900009
 104.9400043  57.5700045  68.0000019  97.9900074  57.0300007  67.3000050
  97.2800064  56.1700010  66.7100048  97.4300003  57.5500011  68.3900023
  97.9000092  58.3500051  68.7400055  96.2000084  57.1600008  69.1100025
  96.2700081  56.0800028  69.1900015  96.1100006  57.7000046  70.5400038
  95.6400013  58.6900043  70.7400036  97.1500015  57.6900005  70.9400034
  95.3000069  56.7400026  71.4200020  94.8100090  55.7400036  70.8800030
  95.1100063  57.0600033  72.6400042  94.9200058  57.5200033  68.3300018
  94.8800087  58.4600019  67.5400019  93.9200020  56.6400003  68.4500027
  94.0600014  55.9500027  69.1600037  92.7400017  56.6000032  67.6800013
  92.8000069  57.2100019  66.7900038  92.4900055  55.1500034  67.2300053
  92.6100063  54.5500040  68.1600046  93.3200073  54.8400021  66.5600014
  91.2100029  54.8200035  66.4800024  90.6100082  55.7400036  65.9400034
  90.7900047  53.5700035  66.6000032  91.4000034  52.8600025  66.9600010
  89.9200058  53.3200026  66.1700010  91.6000080  57.1200037  68.4700012
  91.0000038  56.3800049  69.2600012  91.2000084  58.3900023  68.2800055
  91.6700077  58.9000034  67.5700045  90.3900051  59.1700029  69.0900040
  90.4400063  58.7300014  70.0800037  90.8800030  60.6800032  69.1400051
  90.2500057  61.3500023  69.7600031  90.7200050  61.0900021  68.1200027
  92.2399998  60.8200026  69.6000051  92.6200008  60.5500031  70.9500027
  91.9500065  60.2200031  71.7300034  93.9000034  60.8700037  71.4100027
  94.1500092  60.6900024  72.4500036  94.8300076  61.4400005  70.5100012
  96.1000061  61.7800045  70.9900045  96.7500019  61.4000034  70.3800011
  93.2000065  61.2800026  68.6900043  93.0800056  61.5300035  67.6500034
  94.4700050  61.6600037  69.1900015  95.2300072  62.0200014  68.5100031
  88.9600086  59.1200018  68.7500048  88.1599998  59.9600029  69.1500044
  88.5100079  58.1200027  67.9900026  89.0200043  57.3500013  67.6100016
  87.1600056  57.9500008  67.5000048  87.0200062  58.8200045  66.8900013
  87.0200062  56.5800047  66.8200016  87.1600056  55.7300043  67.5200033
  87.9100037  56.4800024  66.1600018  85.6800079  56.3500023  65.9700012
  84.7900009  56.7600012  66.5000010  85.5500031  55.2600050  65.8100033
  85.7800007  56.9800043  64.6000051  85.8000088  56.3100004  63.5300016
  85.7200050  58.2300043  64.5400047  86.0700035  57.9300022  68.5900021
  86.1600018  57.2300005  69.6100044  85.1500034  58.8900042  68.4300041
  85.1600075  59.4700050  67.6200008  84.1900063  59.3200016  69.4000053
  83.6100006  60.0900030  68.9300013  83.2100010  58.1300020  69.6200037
  82.3799992  58.3700037  70.3200054  83.7600040  57.3000050  70.1100016
  82.4200058  57.6800013  68.3900023  82.3600006  56.4400005  68.1900024
  81.7900085  58.4700012  67.5000048  81.7000008  59.4500017  67.6900053
  81.3700008  58.1000042  66.6700029  84.6000004  59.9500036  70.7500029
  83.7800026  60.3200006  71.5900040  85.8800030  60.1100016  71.0500050
  86.5500069  59.7300005  70.4100037  86.3199997  60.9200048  72.1600056
  85.7200050  60.6800032  73.0300045  87.8500080  60.6600046  72.5000048
  88.1500053  61.2300014  73.4000015  88.4800053  61.1500025  71.7200041
  88.1400013  59.1600037  72.6300049  89.2300034  59.1000032  72.8500032
  88.1500053  58.4300041  71.8000031  87.3900032  58.5200024  73.8200045
  87.0200062  59.3200016  74.4900036  86.5300083  58.0300045  73.3000040
  88.2299995  57.5200033  74.5800018  87.8299999  57.1900034  75.5700016
  89.1000080  58.1500006  74.8700047  88.6100006  56.2400007  73.8900042
  89.1900063  56.4400005  73.0400038  89.2300034  55.7700014  74.5900059
  87.7500057  55.6800032  73.8100052  86.1300087  62.4300051  71.7800045
  86.4200020  62.8300047  70.6600046  85.5400085  63.2100010  72.7400017
  85.3800011  62.8200006  73.6500025  85.2800083  64.6500015  72.7300024
  84.9600029  64.8900032  73.7300014  86.1700058  65.2000046  72.4500036
  84.2300034  65.0500011  71.7600012  83.4300041  64.3600035  71.1500025
  84.1700077  66.3800049  71.5200043  84.6700001  67.0200014  72.1000051
  83.1200027  66.9100046  70.6000042  82.3700047  66.1600018  70.3900051
  82.4300003  68.2100010  71.1200047  83.1400013  69.0600014  71.1900043
  81.3300037  68.5900021  70.1800013  80.7700062  69.5000029  70.4800034
  81.6300011  68.7600040  69.1200018  80.5800056  67.7800035  70.1800013
  82.0600033  68.0700016  72.5800037  81.2100029  67.3600054  72.6200056
  82.8500080  67.6600027  73.2600021  81.7199993  69.0100050  73.0500031
  83.8400078  67.2500038  69.3100023  84.7500038  68.0000019  69.2200041
  83.3200073  66.6500044  68.1800032  82.5600052  66.0000038  68.2200050
  83.7500000  66.9700050  66.8200016  84.7800064  67.2900009  66.8400049
  83.6500072  65.7000017  65.8900023  82.6100063  65.3100014  65.9700012
  84.3400002  64.9900007  66.3800049  83.9700031  65.7600021  64.4200039
  84.0500069  66.9000053  63.8700008  84.1000080  64.6800041  63.8300037
  83.0000019  68.1300020  66.2900019  81.9400024  68.0700016  65.7300043
  83.5700035  69.2600012  66.5700054  84.5100021  69.2100048  66.8800020
  82.9500008  70.5000019  66.2700033  81.8800068  70.5200052  66.4000034
  83.3800030  71.6100025  67.2300053  82.6800060  71.6400051  68.0900049
  83.2600021  72.5300026  66.6100025  84.9000072  71.7200041  67.6500034
  85.5400085  71.2300014  66.8900013  84.9700069  71.1600018  68.6000013
  85.4100037  73.1800032  67.8500032  86.2100029  73.6600018  67.0600033
  84.9700069  73.7200022  69.0400028  84.4900036  73.0700016  69.6300030
  85.0699997  74.7000027  69.2200041  82.8800011  70.8500051  64.8400021
  82.0000076  71.6000032  64.3900013  83.8400078  70.3300047  63.9500046
  84.5400047  69.6600056  64.1700029  83.8899994  70.4900026  62.5700045
  83.8300037  71.5600014  62.4100018  85.1600075  69.8800039  61.9200039
  85.3100014  68.7800026  62.0000029  86.0100079  70.3700018  62.4500036
  85.3500080  70.1700020  60.4400015  84.5700073  69.6400023  59.8600006
  85.3299999  71.6700029  60.1200008  84.3500042  72.1800041  60.1500034
  86.0400009  72.2100019  60.7800007  85.7100010  71.8300056  59.0800047
  86.6300011  69.5900011  60.1300049  86.7500019  68.4900045  60.2100039
  86.7700005  69.8500013  59.0600014  87.4300003  70.1400042  60.6700039
  82.7300072  69.8400021  61.8600035  82.0700073  70.5000019  61.1100006
  82.3600006  68.6300039  62.2100019  82.9699993  67.9700041  62.6400042
  81.0800076  68.1000042  61.7300034  80.9800053  68.1300020  60.6500006
  80.9200001  66.5600014  62.0600033  79.8500061  66.3200045  62.2000027
  81.4100075  66.3400030  63.0400038  81.6100025  65.7100010  60.9800053
  82.7200031  65.7000017  61.0400009  81.3000011  66.0500050  59.9700022
  81.2000084  64.2100048  61.2000036  81.3600063  63.8200045  62.2200012
  80.1200008  64.2400026  60.9300041  81.9000053  63.3500051  60.1600027
  82.9800034  63.4900045  60.3500032  81.6300011  63.9000034  59.2300034
  81.4900017  62.0100021  60.1300049  81.6900063  61.6200018  59.1900015
  81.9600010  61.3800049  60.8200026  80.4699993  61.8700027  60.2300024
  79.7900057  68.8600016  62.1600008  78.8400030  69.1600037  61.3900042
  79.7600031  69.2900038  63.4100008  80.6200027  69.1900015  63.9200020
  78.6500025  70.1200056  64.0300035  77.6800060  69.6500015  63.9400053
  78.8000059  70.3600025  65.5900049  78.0200052  71.0800028  65.9200048
  79.7400045  70.8900023  65.8300018  78.5800028  69.1000032  66.3700008
  78.1400061  68.0600023  65.9000015  78.7800026  69.2500019  67.7300024
  79.1400051  70.0400019  68.2200050  78.7600040  68.4000015  68.2500029
  78.4600019  71.4400053  63.3100033  77.3500013  71.8500042  63.0800009
  79.5700026  72.2700024  62.9900026  80.4900074  72.0900011  63.3200026
  79.4400024  73.4500027  62.2300053  78.7100029  74.0200043  62.7900028
  80.6500053  74.3300056  62.2500038  80.3999996  75.2900028  61.7300034
  81.0200024  74.6300030  63.7100029  80.0300026  74.8400021  64.1700029
  81.4700031  73.7900019  64.2800045  81.6499996  75.5400038  63.7900019
  81.8500042  73.7800026  61.4800024  81.6100025  72.9800034  60.7500029
  82.5900078  73.3900023  62.2100019  82.5800037  74.8600054  60.6900024
  82.8600025  75.7200050  61.3300037  83.4700012  74.4600058  60.1500034
  81.8800068  75.2100039  59.9100018  78.8300037  73.2800055  60.8700037
  78.0600023  74.1200018  60.4400015  79.2500019  72.2300053  60.2100039
  80.0100040  71.6800022  60.5500031  78.6900043  71.7700052  58.9400005
  78.7200022  72.6200056  58.2700014  79.5300055  70.6200027  58.4400034
  79.7200060  69.8800039  59.2400026  78.8300037  69.9100018  57.2200012
  77.8500032  69.5000029  57.5400019  78.6100054  70.6400013  56.4100027
  79.4600058  69.1000032  56.7900038  80.9300041  71.1100054  58.0400038
  81.3500023  71.5900040  58.9400005  80.7700062  71.6500044  57.0800018
  81.8400002  70.0000048  57.6600027  81.7400074  69.5700026  56.6400003
  82.8800011  70.4000044  57.6800013  81.9000053  69.1900015  58.4100008
  77.2200060  71.3600016  59.0200043  76.4600039  71.6900015  58.1500006
  76.8100023  70.6000042  60.0400019  77.5500059  70.2600050  60.6100035
  75.4300022  70.4100037  60.3300047  74.9800014  69.9000025  59.4900036
  75.3300047  69.5200014  61.6200018  76.0100031  69.8900032  62.4200010
  75.7700014  68.5700035  61.2400007  73.9900017  69.3100023  62.3000050
  73.8100052  69.1700029  63.4700012  72.9000044  69.2900038  61.4100027
  72.9700041  69.1500044  60.4200029  72.0200014  69.0700054  61.8300009
  74.6100044  71.7700052  60.6200027  73.5000038  72.0200014  60.1000023
  75.2100039  72.6500034  61.4400005  76.0000038  72.3100042  61.9500017
  74.5700026  73.9300013  61.6800022  73.5600042  73.7200022  62.0000029
  75.2400017  74.7000027  62.8900051  74.7800016  75.7100058  62.9800034
  76.3400030  74.8700047  62.8800011  75.0900030  74.0300035  64.2500019
  75.6300020  73.0600023  64.3500042  75.5200052  75.0200033  65.3600025
  76.6200018  75.0800037  65.5200052  75.1600027  76.0300016  65.0800037
  74.9500036  74.8100042  66.2800026  73.5800028  73.6500025  64.5000029
  73.3600044  73.2400036  65.5000019  72.9600048  74.5600033  64.3600035
  73.2600021  72.8600025  63.7900019  74.3800020  74.8500013  60.4100037
  73.3800030  75.4900026  60.2000046  75.3900051  74.9100018  59.5600033
  76.2300014  74.3900013  59.6800041  75.2300024  75.7300043  58.3800030
  74.8900032  76.7000055  58.7300014  76.5000057  75.7600021  57.5800037
  76.9400024  74.7400045  57.5200033  76.3800049  76.3100052  56.1500025
  75.9500027  77.3400021  56.0600042  77.3700047  76.5200043  55.7000017
  75.7400036  75.6400013  55.5400038  77.5300026  76.7100048  58.2800007
  77.5400019  76.4400053  59.3600035  77.1500015  77.7600050  58.2100010
  78.9700031  76.4300013  57.9000044  79.6500015  77.2100019  58.3100033
  79.3000031  75.4200029  58.2200050  78.9700031  76.5200043  56.7900038
  74.0600014  75.2200031  57.4100018  73.2600021  76.0800028  56.9900036
  73.9500046  73.9500046  57.1100044  74.6300030  73.3500051  57.5300026
  72.8300047  73.3200026  56.5100050  72.7300024  73.6800051  55.5000019
  73.1200027  71.8400049  56.4700031  72.1900034  71.4000034  56.0700035
  73.3100033  71.4700031  57.5000048  74.2600012  71.5000057  55.5000019
  75.1000023  72.2000027  55.7100010  73.9100027  71.6700029  54.4600010
  74.6900034  70.1100016  55.8000040  74.8500013  70.0000048  56.8900013
  73.8100052  69.4800043  55.5100012  75.9800053  69.7400045  55.0100040
  76.9000053  70.3000021  55.2800035  75.8600044  69.7700024  53.9100027
  76.3300037  68.3100033  55.2900028  76.2400055  68.1100035  56.3100004
  75.7100058  67.6200008  54.8100042  77.2500038  68.0400038  54.8900032
  71.4700031  73.5200024  57.2000027  70.4800034  74.0400028  56.6200018
  71.3300037  73.2100058  58.5200024  72.1500015  73.0600023  59.0600014
  70.0400019  73.0700016  59.1500044  69.1900015  73.2000017  58.5000038
  69.9200010  71.6600037  59.8600006  68.8600016  71.4800024  60.1600027
  70.5900049  71.3400030  60.6900024  70.1000023  70.4600048  58.8800049
  70.9100056  69.5100021  59.0600014  69.3800020  70.5300045  57.7600050
  68.8000011  71.3000011  57.5000048  69.5300055  69.7300053  57.1600008
  69.6600056  74.1600037  60.1100016  68.5400009  74.2400026  60.6100035
  70.5800056  75.0400019  60.3400040  71.4900017  74.9000025  59.9600029
  70.4000044  76.2100029  61.1700010  69.3400049  76.4200020  61.2200022
  70.8000040  75.9300041  62.5900030  71.8900013  75.7800055  62.6900053
  70.2200031  75.0400019  62.9200029  70.2800035  76.9600058  63.5700035
  69.6100044  77.9700041  63.2500029  70.6400013  76.7700052  64.8000050
  71.1900043  77.4500036  60.5800009  72.0800018  78.0500031  61.1900043
  70.8600044  77.9100037  59.4000006  69.5600033  77.6000023  58.6800051
  69.5300055  76.5800047  58.2300043  68.8200045  77.6300049  59.4900036
  71.6200018  78.8900042  58.6300039  72.6700020  78.6200047  58.5400009
  70.9200048  78.9400053  57.3000050  71.2800026  78.1600046  56.5900040
  71.0800028  79.9200058  56.7900038  69.4400024  78.6500025  57.6600027
  68.8400030  78.4500027  56.7400026  68.9100027  79.5400047  58.0500031
  71.5200043  80.2300072  59.4400024  72.2500038  81.1299992  59.1300011
  70.4800034  80.4500008  60.2700043  69.8400021  79.7000027  60.4100037
  70.3600025  81.6400051  61.1400032  70.7900047  82.5400066  60.7100010
  68.8900042  81.9900036  61.3900042  68.7600040  82.8400040  62.0900011
  68.1300020  80.8900070  61.8200016  68.3000040  80.7900047  62.7600050
  68.2300043  82.4400043  60.0400019  67.2100019  82.7600002  60.3300047
  68.8400030  83.2100010  59.5300007  68.1200027  81.5500069  59.3800020
  71.0700035  81.6200066  62.5300026  71.0500050  82.6200008  63.2700014
  71.8100023  80.5400085  62.8000021  71.7100048  79.7900057  62.1500015
  72.6800013  80.4100037  64.0400028  71.9500017  80.5400085  64.8200035
  73.2400036  79.0000057  64.2300034  73.9700031  78.7800026  63.4200048
  72.4400043  78.2500029  64.0500021  73.9100027  78.7200022  65.4600048
  73.4400034  77.9900026  65.8800030  73.8300037  81.3500023  64.2400026
  74.7200012  81.6400051  63.4300041  73.8600016  81.9400024  65.4800034
  73.0300045  81.9200039  66.0300016  74.7500038  82.9600048  66.0300016
  75.3900051  83.2700062  65.2100039  73.9900017  84.1800022  66.5500021
  74.6800041  84.9500084  66.9700050  73.3200026  83.8700008  67.3800039
  73.0600023  84.9000072  65.4800034  72.1600056  84.3000031  65.2200031
  73.7000036  84.9900055  64.5800018  72.6500034  86.3400078  65.7900047
  72.1800041  86.7700005  64.8800039  73.5400057  86.8600082  66.2100029
  71.6900015  86.0500050  66.9600010  71.9900036  86.1200047  67.9100037
  70.3600025  86.1000061  66.8300009  69.6900034  86.0300064  65.7100010
  70.2000046  85.8100033  64.8800039  68.6900043  86.1100006  65.7900047
  69.5800018  86.3000011  67.8800011  70.0000048  86.6900063  68.6900043
  68.6200047  86.3700008  67.6100016  75.8200026  82.3000050  66.8600035
  76.7000055  82.9500008  67.4300051  75.8900023  80.9800053  66.8400049
  75.2400017  80.6100082  66.1800051  76.7200041  80.0600052  67.4800014
  77.3700047  80.6599998  68.0900049  75.8100033  79.2100048  68.4700012
  76.4200020  78.5500050  69.1300011  75.2100039  78.5900021  67.7800035
  74.8800039  80.0699997  69.5000029  74.1900015  80.6400013  68.8500023
  75.6100035  80.7200050  70.0400019  73.9600039  79.1300058  70.3100014
  74.5500040  78.5300016  71.0500050  73.4400034  78.4200048  69.6400023
  73.0600023  79.9700022  71.0800028  73.1200027  80.9600067  71.1000013
  71.9700050  79.6100044  71.6900015  71.6200018  78.3300018  71.8600035
  72.1300030  77.6600027  71.3200045  70.7100010  78.1900024  72.2600031
  71.3100052  80.5100060  72.3700047  71.5900040  81.4600086  72.4400043
  70.5800056  80.1700020  72.9700041  77.5500059  79.1700029  66.5900040
  78.1900024  78.2000017  67.0200014  77.5700045  79.4800043  65.2200031
  77.1300030  80.1900005  64.6900034  78.4100056  78.6600018  64.3600035
  78.4200048  77.6600027  64.7800016  77.9800034  78.7100029  62.8800011
  78.3700037  79.6200037  62.3800039  78.6000061  77.4600029  62.1700048
  78.1300020  76.5300035  62.5500011  78.3700037  77.7200031  61.1200047
  79.7000027  77.3100042  62.0800018  76.4100027  78.6100054  62.7400017
  75.8700037  79.4900036  63.1600046  76.0300016  77.6600027  63.1700039
  75.9700060  78.4900045  61.2900019  76.6000032  79.1200018  60.6300020
  76.1300039  77.4400043  60.9800053  74.8800039  78.6900043  61.1700010
  79.8800039  79.1400051  64.3700027  80.5200005  79.7800016  63.4900045
  80.5400085  78.7700033  65.4300022  80.0100040  78.3100033  66.1400032
  81.9200039  78.9000034  65.7800055  82.3099995  79.4800043  64.9600029
  82.0700073  79.5900059  67.1900034  83.1300068  79.5100021  67.5300026
  81.3800049  79.1800022  67.9500055  81.7700005  81.0800076  67.0800018
  82.0800018  81.4900017  66.1000013  80.2200031  81.4800072  67.2800016
  79.8700047  81.0500050  68.2400036  80.1600075  82.5900078  67.2300053
  79.6800041  80.9899998  66.4400053  82.6100063  81.8300056  68.1400013
  82.4400043  82.9300022  68.1100035  82.3500061  81.5400028  69.1800022
  83.6700058  81.5799999  67.9500055  82.6000023  77.5800037  65.8000040
  82.2399998  76.5300035  66.4000034  83.8000011  77.6800060  65.2700043
  84.0799999  78.5700035  64.9100018  84.8300076  76.6000032  65.2900028
  84.4600010  75.8000040  65.9200048  85.0699997  76.1500025  63.7900019
  85.6400013  76.9700050  63.3200026  84.0600014  76.0300016  63.3400011
  85.9400082  74.9000025  63.5500050  86.8400002  75.0400019  64.1800022
  85.0699997  73.6900043  64.0200043  84.0799999  73.6900043  63.5300016
  85.4900074  72.6800013  63.8000011  85.0400066  73.8000011  65.1200008
  86.4000034  74.8600054  62.0600033  86.7300034  75.8900023  61.7900038
  87.2700024  74.1900015  61.9300032  85.6400013  74.5100021  61.3400030
  86.1700058  77.0900059  65.8900023  86.5799999  78.2400036  65.7200050
  86.7900085  76.3600016  66.8100023  86.5700054  75.3900051  66.9400024
  87.7100086  76.9100046  67.7900028  88.2100010  77.8200054  67.4800014
  87.0700073  77.3400021  69.1700029  86.7100048  76.4500046  69.7300053
  86.1400032  77.9300022  69.0200043  88.0900002  78.2300043  70.3900051
  88.7900066  77.2400045  70.9200048  88.9100075  76.0700035  68.2300043
  88.7500000  74.9100018  68.6700010  90.1400089  76.5600014  68.0500031
  90.3800011  77.4400043  67.6300049  91.3700008  75.7900047  68.1700039
  91.2600040  74.7200012  68.1400013  92.3000050  76.2200022  67.0300055
  91.8200016  75.8300018  66.1100054  92.3500061  77.3300028  66.9600010
  93.3000088  75.7500029  67.1800041  92.0800018  76.1400032  69.4700050
  93.1599998  75.6400013  69.8200035  91.5100002  77.0500040  70.2500010
  90.6599998  77.4900055  69.9400043  92.0500088  77.5000048  71.5400028
  93.0400085  77.1000051  71.6500044  91.9200039  79.0600014  71.6500044
  90.8900070  79.4300032  71.5000057  92.4800014  79.3600035  70.7400036
  92.5300026  79.7100019  72.8700018  91.8300056  79.9700022  74.0600014
  90.8000088  79.6800041  74.2500019  92.6600075  80.5400085  74.9500036
  92.2500038  81.0400009  75.6800032  93.8700008  80.7000065  74.3700027
  93.8400078  80.2099991  73.0300045  94.9600029  80.3700066  72.2200012
  94.9200058  80.1100063  71.1800051  96.1400032  80.8700085  72.7700043
  97.0600033  80.8200073  72.2200012  94.9400043  81.2400055  74.8700047
  95.0100040  81.5100002  75.9200048  96.1600018  81.3300037  74.1100025
  97.1100044  81.6000080  74.5400047  91.2000084  76.8600035  72.6100016
  90.1400089  77.3900032  72.9400015  91.7000008  75.8100033  73.2600021
  92.4800014  75.2900028  72.9100037  91.1100006  75.2000046  74.4000053
  90.2300072  75.7300043  74.7200012  90.8200073  73.7300014  74.1600037
  91.8200016  73.2700014  73.9900017  90.1100063  73.5400057  73.3200026
  90.2500057  73.0500031  75.3900051  90.2700043  73.5100031  76.5400028
  89.6300030  71.8900013  75.1900053  89.9100018  71.3500023  74.3900013
  89.2800045  71.4300013  76.0000038  92.0500088  75.4200029  75.5300045
  93.2100010  74.9500036  75.6400013  91.6300011  76.2400055  76.6000032
  90.7100010  76.5600014  76.4000034  92.4200058  76.7100048  77.7900028
  93.2000065  77.3100042  77.3600054  91.4600086  77.6500034  78.6500025
  90.4900074  77.1300030  78.5600042  91.8700027  77.9700041  80.1000023
  91.7400074  77.0000029  80.6200027  92.9100037  78.3600044  80.1000023
  91.3000011  78.8000059  80.5700016  91.2600040  78.9600039  77.9000044
  92.2399998  79.4600058  77.8000021  90.8800030  78.8300037  76.8600035
  90.6100082  79.7000027  78.4100056  93.0400085  75.6200027  78.6300039
  94.1700077  75.6500053  79.0700054  92.4200058  74.5100021  78.9000034
  91.4500046  74.4500017  78.6600018  93.0300045  73.2700014  79.4000053
  93.5200024  73.6000013  80.3000069  91.8700027  72.3600054  79.8400021
  91.2800026  72.2100019  78.9100027  91.3900089  72.8300047  80.7200050
  92.2500038  70.9000015  80.1500034  92.9200077  70.9600019  81.0300064
  92.6900005  70.4200029  79.2500019  91.0500050  70.0900030  80.3700066
  90.3299999  70.5400038  81.0900021  90.3600025  70.1100016  79.5000029
  91.2000084  68.6400032  80.6500053  90.1800060  68.2000017  80.7400036
  91.7600060  68.4100056  81.5900040  91.8300056  67.8800011  79.5600033
  92.7900028  68.2000017  79.3400049  91.7600060  66.8500042  79.7300053
  91.2800026  67.9600048  78.6900043  94.1200066  72.5500011  78.6500025
  94.9800014  71.9500017  79.2700052  94.1300011  72.6200056  77.2800016
  93.5000038  73.1500053  76.7200041  95.1900005  71.9600058  76.4400053
  95.5700016  71.0800028  76.9400024  94.4200039  71.6000032  75.1500034
  95.0300026  71.2900019  74.2800045  93.8000011  72.4700022  74.8200035
  93.4300041  70.3200054  75.2600050  93.7000084  69.5100021  76.1700058
  92.4700069  70.3400040  74.5500040  96.3900089  72.8600025  76.0100031
  97.3200035  72.2800016  75.4400015  96.3800049  74.1700029  76.4000034
  95.6000042  74.6100044  76.8500042  97.4100018  75.0900030  75.9300041
  97.3400021  74.9300051  74.8700047  97.2700024  76.6200018  76.4700031
  97.9600048  77.2700024  75.9000015  97.6400089  76.5100050  77.5100040
  95.8500004  77.1800041  76.2700033  95.1400089  76.4000034  76.6200018
  95.5900002  78.4500027  77.1800041  94.5200062  78.7500048  77.1400023
  95.8600044  78.3400059  78.2500029  96.0700035  79.3400049  76.7000055
  95.6000042  77.4700022  74.7600031  95.5300045  76.4700031  74.2900038
  94.6100044  77.9100037  74.5400047  96.4400005  78.0100060  74.2600012
  98.8700008  74.7000027  76.2100029  99.7300053  74.6900034  75.3500032
  99.2800045  74.3400049  77.4600029  98.6100006  74.4300032  78.1900024
 100.6300068  73.9000034  77.8000021 101.3300037  74.6100044  77.3900032
 100.7600021  73.8500023  79.2900038 101.7800045  73.4800053  79.5100021
 100.0300026  73.2600021  79.8700047 100.6100082  75.2900028  79.8100042
 100.9500027  76.2400055  78.9300060 100.3700066  75.4800034  81.0300064
 101.0700035  72.6700020  77.0800018 102.2700024  72.3600054  76.8900013
 100.1000023  71.6900015  76.8200016  99.1900063  71.8900013  77.1800041
 100.3600025  70.4100037  76.1700058 101.2300014  69.9600029  76.6400051
  99.0700054  69.4900036  76.3900042  99.1300011  68.6400032  75.6800032
  98.1800079  70.0700045  76.0700035  98.9100075  68.9900017  77.8300047
  99.2000008  69.8600054  78.4700060  99.7300053  68.2600021  77.9800034
  97.5400066  68.5600042  78.2500029  96.9000053  69.2200041  79.0800047
  97.1500015  67.3900032  77.7200031  97.8100014  66.8100023  77.2500038
  96.1900043  67.1200037  77.7500057 100.6400013  70.6000042  74.6800041
 101.2200069  69.6800041  74.0700054 100.1300049  71.6800022  74.0400028
  99.5000076  72.3600054  74.4200039 100.4200077  72.0400047  72.6500034
 100.0300026  71.3100052  71.9600058  99.6000004  73.2400036  72.2300053
  99.9100018  73.5200024  71.2000036  99.7600079  74.1200018  72.8900051
  98.0400085  73.0300045  72.2300053  97.7700043  72.7400017  73.2700014
  97.6900005  72.1700048  71.6200018  97.1200085  74.5600033  72.1600056
  95.4400063  73.9700031  72.2800016  94.6600056  74.7600031  72.3600054
  95.2500057  73.3800030  71.3600016  95.3299999  73.2900047  73.1600046
 101.9000053  72.2300053  72.2400045 102.6200008  72.7400017  73.0600023
 102.3100090  71.9000053  71.0400057 101.8200016  71.2600040  70.4500055
 103.6100006  72.2500038  70.5600023 104.3500042  71.9300032  71.2800026
 103.9300060  71.7500019  69.1000032 104.3100071  70.7000017  69.1100025
 103.0600071  71.9100046  68.4300041 104.7600079  72.3700047  68.7000036
 103.7800026  73.8000011  70.5000019 104.6400070  74.4100046  71.0500050
 102.7400017  74.4600058  69.8400021 102.1600056  73.8400030  69.3100023
 102.5200081  75.8800030  69.6900034 103.2200050  76.3600016  70.3600025
 102.9300022  76.3400030  68.2100010 102.1400070  75.8900023  67.5700045
 103.9100075  75.9300041  67.9000044 103.0600071  77.8500032  67.9900026
 102.1400070  78.3100033  68.4000015 104.3700027  78.4600019  68.5400009
 105.3200054  78.1600046  68.0500031 104.3200016  79.5500040  68.3100033
 104.3900013  78.1500053  69.6000051 103.0700016  78.1600046  66.4800024
 104.1200066  78.0800056  66.1400032 102.3600006  77.4700022  65.9700012
 102.9200077  79.2500019  66.3300037 101.0200024  76.1200047  70.0600052
 100.1600075  75.4100037  69.5300055 100.6300068  77.0600033  70.9400034
 101.3800049  77.4100018  72.1400023 102.0200062  76.5700054  72.4800014
 102.0800018  78.2400036  71.8800020  99.2900085  77.6500034  70.9800053
  98.5400009  76.8900013  71.1600018  99.3300056  78.6400032  72.2300053
  98.2800007  78.6600018  72.5800037  99.6900082  79.6700048  72.0300055
 100.2800083  77.9700041  73.1500053  99.7300053  77.1200037  73.6100054
 100.7000065  78.6700058  73.8900042  98.8900089  78.3100033  69.7600031
  99.7800064  78.9300060  69.2100048  97.6800060  78.0400038  69.1800022
  96.4400005  77.8200054  69.9500036  96.3000011  76.7300034  70.1500034
  96.3800049  78.4200048  70.8800030  97.3800087  78.5100031  67.8300047
  98.0500031  78.0200052  67.1400023  95.9800053  77.9600048  67.7000046
  96.0500050  76.8600035  67.5600052  95.3900051  78.4200048  66.8800020
  95.3000069  78.2300043  69.0400028  94.3700027  77.6800060  69.3200016
  95.0900078  79.3200016  69.1400051  97.4700069  79.9900055  67.6200008
  97.1300030  80.7400036  68.5700035  97.9000092  80.4300022  66.4800024
  98.4400082  79.8400021  65.9000015  97.7100086  81.7700005  65.9500027
  98.0000019  82.4000072  66.7700052  98.6100006  82.1200085  64.7500038
  98.4200001  83.1800079  64.5000029  98.3600044  81.4600086  63.8900042
 100.4400063  81.8800068  65.0600052 100.4100037  80.6400013  64.5900011
  96.2700081  82.0900059  65.6900024  95.7300091  83.0900002  66.1100054
  95.5000019  81.1800003  65.0700045  95.9900093  80.3400040  64.8600054
  94.1000080  81.3800049  64.7100019  93.9400005  82.4300003  64.5200014
  93.7500000  80.7000065  63.3700037  92.7700043  81.0400009  62.9600048
  93.5200024  79.6300030  63.5700035  95.6800079  79.6700048  62.0800018
  94.8900032  80.8100033  62.3300028  96.5000057  80.0200081  61.0800028
  97.2400093  79.4500017  60.5200052  96.3400078  81.3400078  60.7800007
  96.9500065  81.8700027  60.1800013  95.3100014  81.8800068  61.5300035
  95.1600075  82.9500008  61.5700006  93.2200050  80.9100056  65.8700037
  93.2300091  79.7500038  66.2400055  92.3700047  81.7199993  66.4900017
  92.2100067  82.6100063  66.0600042  91.5700054  81.4000034  67.6200008
  92.1000004  80.6700039  68.2100010  91.3000011  82.6500034  68.4400034
  90.6500053  83.3400059  67.8700018  90.4300022  82.1500015  69.6600056
  89.3800068  81.8400002  69.4500017  90.9400082  81.2600040  70.0700045
  90.3200054  82.9800034  70.3800011  92.6400089  83.3700085  68.9100027
  92.3100090  84.2600060  69.4800043  93.1100082  83.6800003  67.9500055
  93.6300087  82.5200081  69.6500015  94.4600010  83.1300068  70.0700045
  92.9800034  82.1400070  70.4600048  94.1500092  81.6900063  69.1200018
  90.3500080  80.6599998  67.2000027  90.0000000  79.6600056  67.8600025
  89.6400070  81.2800026  66.2000036  90.0800037  81.9300079  65.5900049
  88.2900047  80.8600044  65.9600019  88.3500004  79.7800016  65.9300041
  87.2600079  81.2600040  67.0500040  87.6500034  80.9200001  68.0300045
  86.4700031  80.4800034  67.0100021  86.8500042  82.7100086  67.1500015
  87.7600002  83.3200073  66.9500017  85.7000065  83.1599998  66.2600040
  86.0800076  83.1200027  65.2200031  84.9100018  82.3900032  66.2000036
  85.4200077  84.2000008  66.5600014  86.5000057  82.9400063  68.6700010
  85.8900070  83.8400078  68.8400030  85.9899998  82.0499992  69.1000032
  87.4500084  83.0400085  69.2400026  87.8800011  81.3600063  64.6000051
  88.4700012  82.3300076  64.0600014  86.8400002  80.7200050  63.9800024
  86.3300037  80.0800037  64.5500040  86.2700081  80.9200001  62.7000046
  86.6300011  81.8900013  62.3900032  86.7200089  79.9900055  61.5200043
  86.0900021  80.2200031  60.6300020  86.4100075  78.9900017  61.8700027
  88.4500027  80.1800060  60.9800053  88.1800079  81.3300037  60.3700018
  84.8000050  80.8500004  62.9700041  84.2700005  79.8600054  63.5700035
  84.0600014  81.9300079  62.7000046  84.6100044  82.7300072  62.4600029
  82.6000023  82.0400047  62.6800013  82.2600079  81.1100006  63.1100035
  82.1300030  83.2299995  63.6800051  82.6200008  84.1800022  63.3800030
  82.4600029  83.0900002  64.7300053  80.6700039  83.5800076  63.6100054
  80.0900078  82.6399994  63.5000038  80.3500080  84.1300011  62.7000046
  80.1900005  84.3900013  64.8400021  80.7700062  85.3600025  65.3100014
  78.9900017  84.0100002  65.4100037  78.3900023  83.3600044  64.9500036
  78.7100029  84.6200085  66.1500025  81.8900013  82.1600056  61.3600016
  82.2300053  82.9500008  60.5400038  80.7900047  81.4400005  61.2400007
  80.5500031  80.7700062  61.9500017  80.1700020  81.2900066  59.9300051
  80.7900047  81.7300034  59.1600037  80.0699997  79.8500061  59.4800043
  79.2800045  79.5800018  58.7400007  79.6900034  79.2000055  60.3000021
  81.4200020  79.2300034  59.1200018  81.9400024  79.4000053  57.8400040
  81.2700081  79.8400021  57.1200037  83.1700039  78.9200020  57.5100040
  83.5300064  78.9200020  56.4900017  83.9700031  78.2100058  58.4200048
  84.9200058  77.7500057  58.1800032  82.2800064  78.7200022  60.1500034
  81.8300056  78.5400057  61.1100006  83.5000038  78.1700039  59.7500038
  84.0900040  77.7500057  60.5600023  78.8900042  82.0100021  59.9000025
  78.1000042  81.8800068  60.8200026  78.5200024  82.5900078  58.7600040
  79.0000057  82.6800060  57.8900051  77.2500038  83.3200073  58.5700035
  76.5100050  83.1900024  59.3400049  77.4900055  84.9200058  58.5000038
  78.3600044  85.1200008  57.8300047  77.6800060  85.1200008  59.5700026
  76.3400030  85.8500004  58.0400038  75.0700045  85.8400059  58.6400032
  74.9500036  85.2400017  59.5300007  74.0700054  86.8300056  58.2500029
  73.0800056  86.8800068  58.6800051  74.3800020  87.6400089  57.1400023
  73.5400057  88.6000061  56.6200018  72.6800013  88.5700035  57.0500040
  76.5800047  86.5600014  56.9000006  77.5500059  86.5600014  56.4200020
  75.6300020  87.5200081  56.4600039  75.8800030  88.2100010  55.6600046
  76.6300058  82.8000069  57.2100019  77.4200058  82.4000072  56.3400030
  75.3000021  82.8900051  57.0100021  74.7200012  83.2100010  57.7600050
  74.6500015  82.3900032  55.8200026  75.2800035  82.4000072  54.9500036
  74.0600014  80.9800053  55.9200048  73.2500029  81.0500050  56.6800022
  73.3500051  80.6599998  54.5900011  74.0400028  80.8600044  53.7400007
  73.1300020  79.5700026  54.6000004  72.4100018  81.2400055  54.4700003
  75.1000023  79.8900032  56.1100006  75.6500053  80.0800037  57.0500040
  74.5600033  78.9200020  56.1900043  75.7700014  79.8100042  55.2300024
  73.4600019  83.3100033  55.5100012  72.5200033  83.4400082  56.2900019
  73.5100031  83.8300037  54.2800045  74.1900015  83.5700035  53.5900021
  72.4000025  84.5700073  53.7400007  71.4300013  84.3300056  54.1500044
  72.5800037  86.0800076  54.0900040  73.5800028  86.3100052  53.6500025
  72.5200033  86.2600040  55.1800013  71.5800047  87.1100044  53.5600042
  70.2400017  87.0900059  53.8500023  69.9700022  86.3800049  54.6100044
  69.3300056  87.9300022  53.1200027  68.2800055  87.8800011  53.3500004
  69.7800016  88.8400078  52.1800041  69.0900040  89.5000076  51.6800022
  72.0600033  88.0800056  52.6300049  73.1100035  88.0200005  52.3500013
  71.1200047  88.8800049  51.8900013  71.6100025  89.6500015  51.3100004
  72.3400021  84.3400002  52.2500038  73.3600044  84.3500042  51.5700006
  71.1500025  84.0900040  51.6800022  70.4500055  84.0300083  52.3900032
  70.7700014  84.1700077  50.2600002  69.7300053  83.9000034  50.2100039
  70.9000015  85.6300068  49.8400021  71.9700050  85.9500027  49.8200035
  70.5100012  86.2700081  50.6600046  70.2200031  86.0300064  48.5900021
  69.1000032  85.5800056  48.2500029  70.7700014  86.9099998  47.9500008
  71.5800047  83.1300068  49.4200039  72.0300055  83.3800030  48.3300018
  71.7500019  81.8900013  49.9800014  71.3900042  81.6700077  50.8800030
  72.4700022  80.8100033  49.3500042  72.2700024  80.0500011  50.0900030
  72.0800018  80.7600021  48.3400011  74.0000057  81.1200047  49.3200016
  74.7500038  80.5400085  48.5500002  74.4400024  82.1000004  50.1200008
  73.8300037  82.6500034  50.6800032  75.8300018  82.4000072  50.1600027
  76.4100027  81.6300011  49.6700001  76.0100031  83.8300037  49.6000004
  77.0800018  84.0600014  49.7900009  75.3400040  84.5400047  50.1200008
  75.8200026  84.1300011  48.0400038  75.0300026  83.4899998  47.5800037
  76.7800045  83.7200069  47.6600027  75.7300043  85.6000042  47.6400042
  76.4500046  86.0599995  48.3400011  76.0400057  85.8300018  46.6000032
  74.3900013  86.3899994  47.9600000  74.3500042  87.4000072  47.5000000
  74.2900038  86.5400028  49.0600014  73.2700014  85.6800079  47.3400021
  72.8400040  84.8900032  47.8600025  72.5200033  86.3700008  47.1700001
  73.6100054  85.2700043  46.4400005  76.3500023  82.4400043  51.5600014
  75.7300043  82.9600048  52.5200033  77.5400019  81.8600082  51.7100048
  78.1400061  81.8100071  50.9200001  78.1900024  81.6000080  52.9700041
  77.5500059  81.6600037  53.8300037  78.8800049  80.2099991  53.0400038
  79.5900059  80.1200008  52.1900034  78.1200027  79.4300032  52.8400040
  79.6700048  79.8700047  54.3800020  80.2400017  80.7700062  54.7100019
  78.6800051  79.5200014  55.5300045  78.4700060  78.4300041  55.6200027
  79.1400051  79.7500038  56.5100050  77.7900028  80.1600075  55.3800011
  80.9200001  78.8400030  54.2400026  81.5100002  79.1900015  53.3700037
  81.5300083  78.7300014  55.1600027  80.5000019  77.8300047  54.0800047
  79.2100048  82.6700020  53.1700039  79.8800039  83.0900002  52.2300005
  79.4200039  83.1100082  54.4200039  78.9200020  82.7400017  55.1900005
  80.4900074  84.0500069  54.6900034  81.2200069  83.8300037  53.9300013
  80.1100063  85.5400085  54.8000050  80.7900047  86.2800026  55.2700043
  79.2300034  85.5900002  55.4800034  79.7400045  86.0300064  53.4700012
  78.8200045  85.7700062  53.4400034  81.1600018  83.5800076  55.9800005
  80.5600071  82.7800083  56.6500044  82.4000072  84.0100002  56.2700033
  82.8999996  84.5700073  55.6300020  83.1400013  83.6500072  57.4400043
  82.4100018  83.3300018  58.1700039  84.0300083  82.3200035  57.2700024
  84.8099995  82.4500084  56.4900017  83.3600044  81.5900040  56.7700005
  84.7700024  81.8400002  58.8500023  83.8300037  81.1200047  59.4600010
  83.9900017  84.7399998  58.0900049  84.4000053  85.6000042  57.3200035
  84.1200066  84.8700047  59.3900013  83.5200024  84.2500019  59.9100018
  84.9500084  85.7700062  60.1700020  85.3600025  86.3700008  59.3700027
  84.1600037  86.5900040  61.2800026  83.5300064  85.8600044  61.8300009
  85.1900005  87.1400070  62.3000050  85.6599998  86.3800049  62.9600048
  85.9700012  87.8100014  61.8800020  84.5000076  87.7200031  62.9700041
  83.2500076  87.5900078  60.6400013  83.0300045  87.2100067  59.6200037
  83.9200020  88.4700012  60.5400038  82.0300007  87.9500008  61.4700031
  81.3199997  88.6500072  60.9700012  81.4100075  87.0600033  61.7100048
  82.3200035  88.4400082  62.4300051  85.9300041  84.9400043  60.9300041
  85.5800056  84.1400051  61.8500042  87.2600079  85.1500034  60.7000017
  87.6500034  85.8100033  60.0600052  88.2900047  84.4000053  61.4500046
  87.8000069  83.7500000  62.1500015  89.2600060  83.7100029  60.4500008
  89.8600006  84.3900013  59.8100042  88.5800076  83.1100082  59.8000050
  90.3600025  82.8200054  60.9600019  90.6100082  82.0900059  60.1500034
  90.0400066  82.2900009  61.8800020  91.9400024  83.6000061  61.3800049
  92.6500034  83.9500046  59.7400045  92.3600006  84.9200058  59.2900038
  93.7600040  83.9400005  59.6700048  92.3200035  83.1400013  59.0500021
  89.0799999  85.3600025  62.3100042  89.3300056  86.4600086  61.8700027
  89.3300056  84.9700069  63.6100054  89.0000057  84.1000080  63.9500046
  90.1400089  85.7400036  64.5500040  90.1000023  86.7700005  64.2300034
  89.5200062  85.7900047  65.9500027  89.6200085  84.7500038  66.3500023
  88.4600067  86.1000061  66.0200024  90.2600002  86.8100071  66.8100023
  90.8000088  86.5200043  68.1200027  90.7500076  85.5400085  68.5600042
  91.4500046  87.5000000  68.8300037  91.9000053  87.3800087  69.8000050
  91.5300083  88.8300037  68.2900047  92.0900059  89.8300076  69.1000032
  92.0300007  90.6500053  68.6200047  90.2700043  88.1599998  66.3800049
  89.8800087  88.3800030  65.4000044  90.8800030  89.1600037  67.1300030
  90.9400082  90.1200008  66.6500044  91.5200043  85.2000046  64.7200012
  91.7000008  84.0300083  65.2300024  92.6000023  85.8500004  64.2300034
  92.4200058  86.6600037  63.6800051  93.9900017  85.6300068  64.6200037
  94.1000080  84.5700073  64.8000050  94.8700047  86.0200024  63.4000015
  94.9600029  87.1200085  63.5000038  94.3200016  85.7800007  62.4700022
  96.2100029  85.2300072  63.3300018  95.9600067  84.1600037  63.4800053
  96.9600010  85.6300068  64.0500021  96.8800068  85.1900005  61.9700050
  96.2700081  85.1200008  60.9000015  98.2300091  85.1399994  62.0300007
  98.6100006  85.4100037  62.9100037  98.7800026  84.6700001  61.3400030
  94.3600082  86.4900017  65.8300018  94.3800068  87.7200031  65.8000040
  94.8200035  85.8600044  66.9600010  94.6300030  84.8900032  67.1000051
  95.4600048  86.6600037  68.0400038  94.8300076  87.5200081  68.2400036
  95.6900024  85.7200050  69.3000031  94.7500038  85.3900051  69.7800016
  96.1100006  86.3600063  70.1100016  96.5799999  84.4500065  69.0900040
  97.3900032  84.7600079  68.4000015  96.0500050  83.6000061  68.6100054
  97.1300030  84.0100002  70.5200052  96.3200092  83.6200047  71.1700010
  97.7200031  84.7900009  71.0600042  98.1100082  82.9900074  70.1900053
  97.8100014  82.0499992  70.0000048  99.4400024  83.0200005  70.2500010
 100.1600075  84.1400051  70.3700018  99.7600079  84.9400043  70.8400011
 101.1300087  84.1100025  70.5900049 100.0900078  81.8900013  70.0300026
  99.5500088  81.0599995  69.9100018 101.0600090  82.0100021  69.8400021
  96.8100071  87.3200035  67.7200031  97.0900059  88.3900070  68.3000040
  97.6100063  86.7000008  66.8300009  97.1700001  86.0000038  66.2700033
  99.0200043  87.0500088  66.7300034  99.0700054  88.1000042  67.0000029
  99.9900055  86.1900043  67.6900053  99.7700024  85.1200008  67.4600029
  99.6900082  86.4200020  68.7300014 101.3300037  86.3600063  67.3900032
 101.6300011  85.7800007  66.6900015  99.4500065  86.9700050  65.3200054
  99.3000031  85.8900070  64.7000027  99.7800064  88.1200027  64.5900011
 100.0500011  88.9700031  65.0300026 100.0200081  87.9600048  63.2000017
  99.8800087  86.9799995  62.7700043  99.0100002  88.8800049  62.4200010
  99.3900013  88.9400005  61.3800049  98.9900017  89.9000072  62.8600025
  97.2800064  88.3500004  62.3100042  96.9000053  88.7900066  63.5000038
 101.4400005  88.4600067  62.8100014 101.7600060  89.6600056  62.8000021
 102.3100090  87.4900055  62.3600006 102.0800018  86.5200043  62.4200010
 103.4600067  87.7000046  61.4100027 104.0300083  88.4500027  61.9400024
 104.3600082  86.4600086  61.4100027 103.6600018  85.6100082  61.3100052
 104.7700024  86.3800049  62.4400043 105.3500080  86.2100029  60.3800011
 105.4100037  87.0100021  59.3600035 106.0900021  85.1900005  60.4600048
 102.9900074  88.2200050  60.0900030 102.3700047  87.5400066  59.2700005
 103.0700016  89.4700050  59.8300028 103.4400082  90.1000023  60.5100012
 102.6800060  90.0100040  58.5700035 101.6900063  89.6600056  58.3000040
 102.3700047  91.5400028  58.7900019 102.2400093  92.0900059  57.8400040
 103.2200050  92.0500088  59.2900038 101.0700035  91.8200016  59.5300007
 100.9800053  91.2400055  60.4700041 100.9900093  93.2400036  60.0600052
 101.6600037  93.3900070  60.9300041 101.2600040  93.9000034  59.2100048
  99.9300003  93.4200001  60.3400040  99.7800064  91.5900040  58.6600018
  99.8900032  90.7000065  58.0000019  98.9600086  91.4500046  59.4000006
  99.6200085  92.4600029  57.9800034 103.6000061  89.8600006  57.3600006
 103.2000065  90.0500011  56.2700033 104.8500061  89.4099998  57.5500011
 105.2600098  89.3100071  58.4600019 105.7100010  89.0900040  56.3500023
 105.5600071  89.8300076  55.5800009 106.7100048  88.9200020  56.7000008
 105.3600025  87.7500057  55.7200003 105.2800083  87.6200008  54.4800043
 105.1800060  86.7400074  56.6100025 105.2900028  86.9000053  57.5800037
 105.3400040  85.3999996  56.1400032 105.6200027  85.3100014  55.1000023
 106.4400005  84.6600056  56.9600010 106.2200069  84.4900036  58.0300045
 107.2400093  85.4100037  57.1100044 107.3100090  83.5200024  56.3700008
 107.5500011  83.8199997  55.3200006 108.6800098  83.5200024  57.1300030
 108.3100033  83.3900070  58.1700039 109.3700027  82.6900005  56.8900013
 109.1000080  84.5500088  57.0600033 106.5100098  82.2500038  56.5400028
 107.1900082  81.3899994  56.3700008 106.2400055  82.1200085  57.6100016
 105.6200027  82.2900009  55.8700037 104.0700054  84.6700001  56.3600016
 103.4300041  84.2800045  55.3900003 103.6800003  84.6000004  57.6200008
 104.1500092  85.2400017  58.2300043 102.4800014  83.9300060  58.0500031
 102.5800037  82.8700066  57.9300022 102.4300003  84.1600037  59.1000032
 101.1800003  84.3900013  57.3500013 100.2800083  83.6500072  56.9400024
 100.9100056  85.7600021  57.4000025 101.6500092  86.3700008  57.6900005
  99.6400070  86.3199997  56.9500017  98.8700008  85.7500076  57.4600029
  99.5400047  87.7800083  57.3100042 100.5200005  88.2900047  57.2400045
  98.5800076  88.5900021  56.4200020  98.2300091  89.5800018  56.7800045
  99.0200043  88.6500072  55.4000044  97.6500034  87.9900074  56.3400030
  99.1800022  87.8800011  58.7900019 100.0100040  87.4800014  59.4100046
  98.9200020  88.9300060  59.0200043  98.3000088  87.3200035  59.1600037
  99.3500042  86.0900021  55.4400015  98.2100010  85.7000065  55.2200031
 100.1700020  86.3000011  54.4300032 101.4200020  86.9900036  54.6000004
 101.1900043  88.0100060  54.9700022 102.1100044  86.4200020  55.2700043
  99.9700069  85.9100056  53.0900002  99.1900063  86.5700054  52.7600002
 101.2800026  86.1200047  52.4400043 101.0700035  86.2900066  51.3600016
 101.9700050  85.2500057  52.5200033 102.0100021  87.2000027  53.2300043
 101.6500092  88.2100010  52.9400015 103.1100082  87.2000027  53.1800032
  99.4500065  84.5300007  52.8500032  98.5100079  84.3900013  52.0700026
  99.9700069  83.5000038  53.4800005 100.6900024  83.6500072  54.1600037
  99.3900013  82.1600056  53.4100008  99.2100048  81.9300079  52.3700047
 100.4600048  81.1900043  54.0000010 100.1000023  80.1399994  54.0900040
 100.6600094  81.5500069  55.0300026 101.7600060  81.1600018  53.2100010
 101.8500042  80.6800079  51.8700027 100.9600067  80.5000019  51.2800026
 103.0800056  80.6700039  51.2000036 103.1300068  80.3600025  50.1700020
 104.1800022  80.9700012  51.9200039 105.1300049  81.0200024  51.4100027
 102.9700089  81.4700031  53.8700008 102.8500080  81.7700005  54.9000025
 104.1700077  81.5100002  53.2600021 105.1000023  81.7600060  53.7400007
  98.1100082  81.9400024  54.1200018  97.2200012  81.3100052  53.5800028
  97.9700089  82.5300026  55.3700018  98.7700081  82.9400063  55.8000040
  96.7500019  82.3600006  56.1700010  96.6300011  81.3100052  56.4000034
  96.7900085  83.3100033  57.3900032  95.8600044  83.3200073  57.9900026
  97.0100021  84.3500042  57.0500040  97.8700066  82.7500057  58.2900047
  98.2900047  81.6300011  58.1200027  98.2400036  83.5900021  59.2600012
  97.9600048  84.5500088  59.2800045  99.0300083  83.3200073  59.8100042
  95.4800034  82.8299999  55.4100037  94.4200039  82.2100067  55.4800034
  95.6100082  84.0700054  54.7800016  96.3700008  84.7000027  54.8400021
  94.6500015  84.5300007  53.8200045  93.7400055  84.7900009  54.3500042
  95.2000046  85.8500004  53.0800009  96.1900043  85.5700016  52.6800013
  94.2200089  86.3100052  51.8900013  94.4800091  87.2399998  51.3500023
  94.3100071  85.4600048  51.1800003  93.1500053  86.4000034  52.1800041
  95.3000069  87.0300007  54.1300011  95.8900070  86.7000008  55.0100040
  94.3100071  87.4200058  54.4300032  96.1700058  88.1900024  53.4700012
  96.5100002  88.9000034  54.2600012  97.1400070  87.8000069  53.0800009
  95.5400085  88.6600018  52.6900005  94.1300011  83.4899998  52.8300047
  92.9600048  83.4200001  52.6700020  95.0500011  82.7000046  52.2300005
  96.0000038  83.0000019  52.2800016  94.6400070  81.6000080  51.3700008
  93.8800049  81.9099998  50.6700039  95.9000015  81.1700058  50.5800009
  96.7400074  80.7900047  51.1900043  95.6100082  80.4400063  49.7900009
  96.3300037  82.0900059  50.1300001  94.0900040  80.3400040  52.1200037
  93.0600071  79.8400021  51.7600012  94.6800041  79.9700022  53.2800007
  95.5200005  80.3800011  53.6300039  94.2000008  78.8000059  53.9800024
  94.1800022  77.9500055  53.3200026  94.9200058  78.4500027  55.3200006
  94.4300079  77.6500034  55.9100008  94.9600029  79.4600058  55.7800007
  96.3100052  78.1400061  55.0600004  96.4000034  77.2300053  55.3700018
  92.7200031  78.8900042  54.3300009  91.9800091  77.9300022  54.2200041
  92.2600079  79.9900055  54.8900032  92.9000092  80.7100010  55.1400042
  90.9200001  80.2099991  55.4400015  90.5000019  79.2500019  55.6600046
  91.0500050  81.2300014  56.6700029  90.0200081  81.5700054  56.9000006
  91.5799999  82.1100044  56.2600040  91.7500019  80.5800056  57.8600025
  91.0200024  79.7000027  58.6800051  89.9600029  79.5800018  58.5300016
  91.6000080  78.9400053  59.7100019  90.9700012  78.2000017  60.1900005
  92.9700089  79.0400028  59.9400043  93.5900021  78.2500029  60.8600044
  94.4900036  78.5800028  60.8500051  93.1000042  80.7200050  58.1700039
  93.7900066  81.4100075  57.7200031  93.7100029  79.9200058  59.1800022
  94.7600079  80.1000023  59.3400049  89.9900055  80.8500004  54.3400049
  88.8100052  80.7400036  54.4300032  90.4700089  81.4400005  53.2400036
  91.4500046  81.6000080  53.1500006  89.6900082  81.5500069  52.0600033
  88.6700058  81.8500042  52.2500038  90.4300022  82.4500084  51.0300016
  89.8400021  82.4500084  50.0900030  91.4400005  82.0700073  50.7700014
  90.5600071  83.7800026  51.5200043  91.1800003  83.8600063  52.2500038
  89.3900013  80.2099991  51.3700008  88.2900047  80.1200008  50.8200026
  90.3500080  79.2400026  51.2900019  91.3199997  79.3200016  51.5000010
  90.0800037  77.8600025  50.8000040  89.5500088  77.9300022  49.8600006
  91.4200020  77.0500040  50.6800032  91.9600010  77.1600056  51.6400003
  91.2500000  75.6100035  50.2800035  90.8100033  75.0700045  51.1400032
  90.6700039  75.4600048  49.3400002  92.1800041  75.0200033  50.1100016
  92.2500038  77.6800060  49.5600033  92.1100044  78.7800026  49.4900036
  91.9200039  77.3900032  48.5400009  93.7500000  77.3700047  49.6100044
  94.1500092  77.6500034  48.6100006  94.1600037  78.0700016  50.3800011
  93.9900017  76.3200045  49.8700047  89.1400051  77.1700048  51.7100048
  88.1599998  76.5500021  51.3000011  89.2500019  77.2400045  53.0500031
  90.1500034  77.4900055  53.3800030  88.3500004  76.5000057  53.8700008
  88.4700012  75.4800034  53.5500002  88.7600040  76.7500019  55.3600025
  88.7700081  77.8400040  55.5900049  89.8200035  76.4400053  55.5200005
  88.0700016  75.9600019  56.4700031  88.0000019  74.5600033  56.5400028
  88.3300018  74.1300058  55.6000042  87.3400021  73.8400030  57.5500011
  87.1500015  72.7800035  57.5300026  86.8800068  74.6000051  58.6900043
  86.3700008  74.0900040  59.4900036  87.4800014  76.6600037  57.5700045
  87.5500011  77.7400017  57.5500011  86.9000053  76.0000038  58.6000013
  86.4600086  76.6500044  59.3400049  86.8700027  76.9200039  53.7700033
  85.9200001  76.1900043  53.9600039  86.6800022  78.1800032  53.5000038
  87.4900055  78.7400055  53.3700037  85.4200077  78.8400030  53.2600021
  84.8000050  78.4600019  54.0500021  85.4800034  80.3999996  53.3200026
  85.9100056  80.7900047  52.3700047  86.1600018  80.7400036  54.5600033
  87.1000004  80.7700062  54.3600035  84.0500069  80.8400059  53.4800005
  83.9700031  81.9300079  53.6300039  83.2800007  80.7200050  52.6900005
  83.6900043  80.3600025  54.4200039  84.7900009  78.4100056  52.0100021
  83.7100029  77.9400015  52.1300030  85.4400063  78.3700037  50.8200026
  86.3400078  78.7700033  50.6800032  85.0400066  77.4300051  49.6900034
  84.0900040  77.6800060  49.2500019  86.1000061  77.3900032  48.5200024
  85.7700062  76.7500019  47.6800013  87.1200085  77.0300055  48.7400007
  87.1500015  79.6300030  48.2500029  86.2800026  78.7000036  47.8200006
  87.2500038  80.5300045  47.3600006  88.0400085  81.2900066  47.3800039
  86.4400005  80.3000069  46.3200045  86.3100052  80.8400059  45.4800034
  85.8500004  79.1100025  46.5700006  85.0300026  78.6900043  46.0000038
  84.8000050  75.9600019  50.0700045  83.8500023  75.3100014  49.6200037
  85.6100082  75.2500057  50.8600044  86.4200020  75.6500053  51.2800026
  85.3400040  73.8200045  51.2300014  85.1600075  73.2700014  50.3200006
  86.5900040  73.1700039  52.0300007  86.3800049  72.1400023  52.3800039
  86.7500019  73.7900019  52.9400015  87.9400063  73.0000019  51.3200045
  88.2100010  73.9300013  50.7700014  87.9100037  72.2400045  50.5200005
  89.4300079  72.6300049  52.3400021  88.9500046  70.9200048  52.7200031
  89.7300053  70.4400015  53.3400011  88.0300045  70.9000015  53.3500004
  88.8900089  70.2500010  51.8400002  84.0500069  73.6100054  52.0400047
  83.2100010  72.7200031  51.7100048  83.8800049  74.4500017  53.1400013
  84.5500088  75.1400042  53.3900023  82.7000046  74.5200014  54.0000010
  82.4400043  73.5000038  54.2500019  82.9900074  75.3200054  55.2700043
  83.3200073  76.3200045  54.9300003  81.7500019  75.4600048  56.1900043
  81.3800049  74.4500017  56.4300013  82.1500015  76.0100031  57.0600033
  80.9500027  76.0800028  55.7000017  84.2000008  74.7000027  56.0900021
  84.5600033  75.4600048  56.8100023  85.0800037  74.4500017  55.4600048
  83.8199997  73.3900023  56.8700027  83.3300018  72.6800013  56.1600018
  84.7200012  72.9600048  57.3500013  83.1300068  73.5100031  57.7300024
  81.4800072  74.9500036  53.2600021  80.3999996  74.3200016  53.4100008
  81.5400028  75.9400034  52.3600006  82.3600006  76.4600039  52.1400023
  80.4600048  76.2900019  51.5100002  79.6500015  76.6000032  52.1500015
  80.9400082  77.5600052  50.6800032  81.8700027  77.3000050  50.1200008
  80.1600075  77.9500055  50.0000000  81.1200047  78.4000015  51.3900042
  80.0300026  75.1800013  50.5500031  78.8300037  74.9600029  50.4600000
  80.9300041  74.4200039  49.9500036  81.8900013  74.4600058  50.2300024
  80.6700039  73.4000015  48.9100027  80.0699997  73.9400053  48.2000017
  81.9600010  73.0500031  48.2400036  82.5800037  72.4400043  48.9300013
  82.5100040  73.9800024  47.9900026  81.6300011  72.2800016  46.9000006
  81.0599995  72.9900026  46.2700033  81.0700035  71.3400030  47.1000004
  82.8800011  71.8800020  46.0200024  82.9800034  72.2900057  44.8600006
  83.7000084  70.9300041  46.5000010  83.5200024  70.6300020  47.4300003
  84.4600010  70.7500029  45.8800030  79.8800039  72.1400023  49.4700003
  78.9300060  71.6900015  48.8300037  80.2099991  71.6800022  50.6700039
  80.8900070  72.1700048  51.2100029  79.6000051  70.6000042  51.4400005
  79.6000051  69.7700024  50.7500029  80.3999996  70.1100016  52.7200031
  79.7400045  69.3800020  53.2400036  81.7100048  69.6700048  52.2300005
  81.6400051  68.7300014  51.6400003  82.1800041  70.5000019  51.6600037
  82.3799992  69.3600035  53.0600023  80.7100010  71.1900043  53.7300014
  81.5300083  71.8500042  53.3700037  79.8300028  71.8300056  53.9500046
  80.9100056  70.8400011  54.7700024  78.1800032  70.9800053  51.8400002
  77.2000027  70.2800035  51.8300009  78.0200052  72.3100042  52.1300030
  78.7000036  73.0200052  51.9400024  76.6600037  72.8400040  52.5000048
  76.0400057  72.1200037  53.0400038  76.8000031  73.8900042  53.7300014
  75.7400036  74.1800022  53.8600016  77.4700022  74.7300053  53.4400034
  77.6100016  72.9900026  55.1300049  78.7800026  73.0100012  54.5100021
  75.8400059  73.3300018  51.2900019  74.7200012  73.8600016  51.4500046
  76.3500023  73.3700037  50.1000023  77.3000050  73.0800056  50.0200033
  75.5800056  73.6400032  48.9100027  76.2700033  73.3600044  48.1200027
  74.3100023  72.8700018  48.6800003  73.8900042  73.1100035  47.6800013
  73.5100031  72.8400040  49.4500017  74.7600031  71.3700056  48.4800005
  75.2900028  70.9700012  47.4400043  74.5600033  70.6500053  49.5800018
  74.1800022  71.0200024  50.4300022  74.8200035  69.6900034  49.5900011
  75.4400015  75.1500034  48.6700010  74.5000029  75.7000017  48.1600046
  76.4300013  75.9200048  49.2300034  77.1000051  75.4200029  49.7700024
  76.3800049  77.3900032  49.3300009  75.4800034  77.7500057  48.8600016
  76.4800024  77.7600050  50.8300018  76.4000034  78.8700056  50.9500027
  77.4700022  77.4200058  51.2100029  75.3500032  77.4100018  51.8200016
  75.2900028  76.3000059  51.8200016  75.6800032  77.9000044  53.2800007
  74.8100042  77.8200054  53.9700031  76.5200043  77.2900057  53.6800003
  75.9600019  78.9800024  53.2500029  74.0400028  78.0200052  51.3800001
  74.2100048  79.1000032  51.2300014  73.7200022  77.5500059  50.4200029
  73.1600046  77.9300022  52.0600033  77.4400043  78.0600023  48.4700012
  78.4700060  77.4700022  48.1100035  77.2700024  79.3300056  48.1200027
  76.4300013  79.8500061  48.2700014  78.2600021  79.9400043  47.2900009
  78.7900019  79.2800045  46.6200018  77.7000046  80.8800030  46.2000036
  78.5800028  81.3600063  45.7300043  77.1600056  81.7400074  46.6500044
  76.7900038  80.2000046  45.1600027  76.4300013  80.9600067  44.4300032
  75.8700037  79.7600031  45.5900002  77.4300051  79.0600014  44.3700027
  78.4500027  79.2800045  43.8100004  76.7500019  77.9000044  44.3300009
  75.8500051  77.7000046  44.7300005  77.0600033  77.2200060  43.6800003
  79.1100025  80.8200073  48.2500029  78.5700035  81.6600037  48.9600039
  80.4300022  80.6900024  48.2800007  81.2400055  79.8000050  47.2900009
  81.1200047  78.7400055  47.6000023  80.9000015  80.0000000  46.2500000
  81.2500000  81.4800072  49.2000008  80.9300041  81.4800072  50.2300024
  82.6000023  80.8300018  49.0600014  82.5699997  79.8900032  49.6600008
  83.5300064  81.4000034  49.2800045  82.6300049  80.3700066  47.6000023
  83.4000015  79.5900059  47.3800039  82.9100037  81.1900043  46.9099998
  81.2400055  82.9800034  48.8200045  81.6800022  83.3400059  47.7100039
  80.7200050  83.9600086  49.6900034  80.2200031  83.5800076  50.4700041
  80.8700085  85.3800011  49.6000004  81.2000084  85.6300068  48.6000013
  79.4300032  85.9200001  50.0300026  78.6800051  85.3999996  49.3900013
  79.2600060  85.7200050  51.1100006  79.3000031  87.0200062  49.9000025
  81.9700050  85.9400082  50.4200029  83.1200027  85.9700012  49.9500036
  81.8600082  86.3800049  51.6900015  81.0800076  86.2400055  52.2900009
  82.9900074  87.1500015  52.3100042  83.7200069  87.4000072  51.5600014
  82.6500034  88.4800053  52.9400015  83.5900021  88.8199997  53.4300041
  81.7500019  88.3300018  53.5800028  82.2500038  89.5600033  51.8200016
  81.2300014  89.3200016  51.4600039  82.9100037  89.4700050  50.9200001
  82.3500061  91.0200024  52.3200035  81.5400028  91.4400005  53.1000042
  83.2800007  91.8300056  51.8000031  83.8300037  91.6600037  50.9800005
  83.2700062  92.7600002  52.1800041  83.7400055  86.3100052  53.2900047
  83.1800079  85.7900047  54.2300034  85.1100063  86.2500000  53.1200027
  85.5400085  86.4800072  52.2500038  85.9800053  85.8600044  54.1800022
  85.4699993  85.1300049  54.7900009  87.2500038  85.2500057  53.5900021
  87.6200008  85.9500027  52.8100014  87.0200062  84.2600060  53.1500006
  88.3500004  85.0800037  54.5500040  88.1800079  84.3900013  55.8300018
  87.1800041  84.0400028  56.0400009  89.2700005  84.4000053  56.7100048
  89.3500042  83.9200020  57.6800013  90.5000019  84.8800087  56.2000036
  91.3800049  84.8200035  56.8300009  89.6000004  85.5100060  54.1800022
  89.6400070  85.8100033  53.1400013  90.6800079  85.5900002  55.0000048
  91.6200066  86.0100079  54.6600008  86.3899994  87.1800041  54.9200010
  86.7900085  88.1599998  54.2600012  86.1700058  87.2900009  56.2300014
  85.5800056  86.6499996  56.7100048  86.6100025  88.4600067  57.0500040
  86.9900036  89.3100071  56.5100050  85.4100037  88.9800072  57.7100039
  84.9900055  88.2000065  58.3900023  85.8400059  90.1700020  58.6200047
  84.9400043  90.5200005  59.1700029  86.5200043  89.8400021  59.4400024
  86.2400055  91.0000038  58.0100012  84.2700005  89.3200016  56.7600012
  84.0000057  88.3900070  56.2100029  84.6300030  90.0000000  55.9600019
  83.0700016  90.0100040  57.4400043  82.6100063  89.4200039  58.2600021
  83.2100010  91.0100079  57.9100037  82.2800064  90.2400017  56.6900015
  87.7100086  88.0100060  57.9200029  87.6200008  86.9300079  58.5700035
  88.8900089  88.7100029  57.8400040  89.0100002  89.5300007  57.2800016
  90.0800037  88.3300018  58.6300039  90.0000000  87.3600006  59.1000032
  91.3300037  88.4000015  57.7700043  91.5200043  89.3400002  57.2100019
  91.0600090  87.6700020  56.9800043  93.7000084  87.7900028  57.4900007
  92.6400089  87.8999996  58.3000040  94.6400070  87.1800041  58.2100010
  95.5400085  86.6800022  57.8800011  94.1700077  86.8200016  59.4000006
  94.5400047  86.1600018  60.0400019  92.8600025  87.3400021  59.4900036
  92.4000072  87.2200012  60.4600048  90.1900005  89.3800068  59.6900034
  90.5600071  90.5100060  59.3600035  89.9500084  89.0700054  60.9700012
  89.4600010  88.2900047  61.3500023  90.1400089  90.0100040  62.0600033
  90.2300072  91.0200024  61.6900015  88.9200020  89.9500084  62.9200029
  88.8700008  88.9600086  63.4100008  88.9800072  90.9100056  64.2000008
  89.6800041  90.4800034  64.9500036  89.2200089  91.9600010  63.9300013
  87.9800034  90.9100056  64.6700048  87.5699997  90.1900005  62.3000050
  87.4000072  89.5000076  61.4400005  86.7600060  89.9000072  63.0100012
  87.4100018  91.2700081  62.1200037  91.3600063  89.7900009  62.9600048
  91.6300011  88.7300014  63.4800053  92.1700001  90.8400059  63.2600021
  91.7700005  91.7300034  63.0300045  93.4700012  90.6800079  63.9500046
  93.6400032  89.6400070  64.1800022  94.6000004  91.2400055  63.0700016
  95.4900074  90.6400013  63.3600044  94.7800064  92.3200035  63.2500029
  94.3600082  91.2700081  61.5600014  93.3900070  91.7500019  61.3100052
  95.5100060  92.0000076  60.7900047  96.5200043  91.6900063  61.1300039
  95.5400085  91.8300056  59.6900034  95.4400063  93.0800056  61.0300016
  94.2900085  89.8300076  60.9000015  95.3400040  89.4900036  60.8600044
  93.7100029  89.1100025  61.5100050  93.9000034  89.8400021  59.8600006
  93.5100079  91.3500023  65.3400040  92.8100014  92.2100067  65.6800032
  94.3300056  90.7400036  66.1300039  94.6700001  89.9000072  65.7100010
  94.7700024  91.0100079  67.4500036  94.1600037  91.6700077  68.0500031
  94.8400021  89.9900055  67.8200054  96.0100079  91.7600060  67.4500036
  96.0400009  92.8400040  66.8200016  97.0900059  91.2900066  68.0400038
  97.0700073  90.3900051  68.4600019  98.4300041  91.8400002  67.9700041
  98.4300041  92.9000092  68.1400013  99.3200016  91.2300014  69.0300035
  99.3900013  90.1300049  68.8600016  98.7800026  91.3400078  70.0000048
 100.5800056  91.9900036  69.1600037 101.7100048  91.7000008  68.7300014
 100.4600048  93.1700039  69.8000050  99.7100067  93.3800030  70.4300022
 101.2700081  93.7600040  69.8100042  99.0400028  91.5500069  66.5600014
  99.4000053  90.3700066  66.2500048  99.2400074  92.5800037  65.6900024
  99.0400028  93.5200024  65.9600019  99.7900009  92.4200058  64.3600035
  99.8000050  91.3800049  64.0800047  98.8900089  93.1599998  63.3400011
  97.9000092  92.6600075  63.3000040  98.7300014  94.2500019  63.5000038
  99.4500065  93.0900002  62.3800039 101.2000084  93.0500031  64.1900015
 101.4200020  94.1900063  64.6900034 102.1300030  92.3400021  63.5800028
 102.0500088  91.3900089  63.3100033 103.4800053  92.7300072  63.7000036
 103.4900093  93.8000011  63.7700033 103.9900017  92.1200085  65.0300026
 103.4600067  92.6000023  65.8800030 105.0700092  92.3600006  65.1400042
 105.0700092  89.8800087  64.8800039 103.9500046  90.6500053  65.1200008
 104.6800041  88.6200047  65.1200008 105.1200008  87.6400089  64.9300051
 103.3700085  88.5599995  65.5100012 102.8500080  87.7100086  65.4800034
 102.8800011  89.8700047  65.5500031 101.8700027  89.9800014  65.9400034
 104.3600082  92.3800087  62.5700045 104.1000080  91.4800072  61.7600012
 105.4000092  93.2100010  62.5000048 105.4100037  93.9100075  63.2100010
 106.2700081  93.1300068  61.3300037 106.1000061  92.3000050  60.6600046
 106.1600018  94.3800068  60.4700041 106.2100029  95.2000046  61.2200022
 107.3400021  94.4300079  59.4700050 108.3300018  94.5500088  59.9600029
 107.3000050  93.5400009  58.8100004 107.1600056  95.3000069  58.8100004
 104.8300076  94.4900036  59.7700024 104.7500038  93.8199997  58.8900042
 103.9600086  94.2200089  60.4000044 104.5900059  95.4900074  59.3400049
 107.6400089  93.0500031  61.9600010 108.0400085  93.9500046  62.6900053
 108.3900070  91.9400024  61.7400026 108.1000042  91.2800026  61.0600042
 109.6800041  91.6800022  62.3400021 109.4900036  91.8900013  63.3900023
 110.1700020  90.2300072  62.2100019 111.2100029  90.2300072  62.5900030
 110.3000069  89.7700024  61.2100029 109.3800068  89.3200016  63.0400038
 109.7900009  89.0700054  64.3200016 110.7200050  89.4799995  64.6800041
 109.0200043  88.1900024  65.1300049 109.3500042  87.7900028  66.0800028
 107.8600025  87.5800037  64.6500015 107.1000004  86.8200016  65.5100012
 107.2900009  87.0600033  66.4200020 108.1600094  88.7700081  62.5700045
 107.7500057  89.0600014  61.6100025 107.4200058  87.8900051  63.4000015
 106.5200043  87.4400043  63.0000019 110.7400036  92.6400089  61.8900013
 110.8100033  93.1200027  60.7400036 111.7100048  92.9100037  62.7200031
 111.6800022  92.6000023  63.6700010 112.7500057  93.8900089  62.3400021
 112.1000099  94.6700001  61.9600010 113.6100101  94.3900013  63.5600042
 114.3900013  95.1500034  63.3300018 114.1800022  93.5600090  64.0200043
 112.5800037  95.0700092  64.5400047 111.5600014  95.5500031  64.0800047
 113.0200100  95.1700020  65.8200026 113.9000034  94.8200035  66.1500025
 112.3000050  95.3700066  66.4800024 113.6100101  93.4899998  61.1700010
 114.0000057  94.3300056  60.3300047 113.8000011  92.1800041  60.9000015
 113.3200073  91.5100002  61.4600039 114.4400024  91.6300011  59.7300005
 115.2500057  92.2500038  59.3900013 115.0800037  90.2400017  60.0600052
 115.9200096  90.4900074  60.7500029 115.5800056  89.7800064  59.1800022
 114.1200066  89.1900063  60.5600023 112.9800034  89.5700073  60.9000015
 114.4600010  87.8999996  60.4600048 115.4400063  87.7000046  60.5300045
 113.7400055  87.2200012  60.6000042 113.5100079  91.5500069  58.4500027
 113.9400101  91.1000061  57.4100018 112.2200012  91.8200016  58.5700035
 111.8900013  92.1300030  59.4600010 111.2000084  91.8500042  57.4900007
 111.4300060  91.0500050  56.8000031 109.7900009  91.6499996  58.0700016
 109.0800095  91.9600010  57.2700024 109.5100021  92.3800087  58.8600016
 108.1100082  90.1000023  58.8400030 109.4000053  90.3200054  58.5400009
 108.0600071  88.7600040  58.9800024 107.2000027  88.1300068  59.2100048
 109.3600082  88.2500076  58.9200020 109.6400070  87.3000050  59.0700006
 110.2200031  89.2100048  58.6200047 111.2900066  89.1000080  58.5500050
 111.1700058  93.0700016  56.6900015 110.5700016  93.1300068  55.6600046
 111.6200066  94.1800022  57.2300005 112.1300030  94.1600037  58.0900049
 111.4200020  95.5000019  56.7300034 110.3500080  95.6400013  56.7400026
 111.9700050  96.5400028  57.7200031 113.0100060  96.2200069  57.9500008
 111.9400024  97.9900074  57.1500015 112.3100090  98.0800056  56.1100006
 110.8900070  98.3200073  57.3200035 112.4800014  98.6600018  57.8500032
 111.1400032  96.4200020  59.0200043 111.0000038  95.3500080  59.2700005
 110.0900078  96.7300034  58.8200045 111.8200016  97.0000076  60.2300024
 111.1400032  96.8100071  61.0900021 112.8500080  96.6400051  60.4200029
 111.9100094  98.1000042  60.0700045 111.8800068  95.8000088  55.3000021
 111.1100006  96.3200092  54.5300007 113.1200027  95.4100037  54.9400043
 113.6900043  94.8400021  55.5300045 113.6000061  95.7100010  53.6200047
 113.4700012  96.7600060  53.4000015 115.0500011  95.4500008  53.5700035
 115.4600048  95.5400085  52.5500011 115.3300095  94.3800068  53.6300039
 115.8600044  96.1300087  54.6100044 115.5500031  97.3500061  54.9600029
 116.8300056  95.5800056  55.1700020 112.7900028  94.9400043  52.4700022
 112.4300098  95.5200005  51.5000010 112.4600029  93.6400032  52.7500010
 112.8600025  93.0600071  53.4600019 111.5900040  92.7800083  51.9300032
 112.0700073  92.8000069  50.9600019 111.4800072  91.3500023  52.5900030
 110.8200073  90.6400013  52.0500040 111.0800076  91.5600014  53.6000013
 112.7400017  90.7299995  52.7300024 112.6100063  89.8100090  52.5200033
 110.2100086  93.3400059  51.7400026 109.6800041  93.3100033  50.6300020
 109.6500015  93.9300060  52.7700043 110.0100040  93.7900066  53.6900043
 108.3800030  94.7399998  52.7800035 107.6600075  94.1000080  52.2800016
 107.7700043  94.8600006  54.2000008 107.1400070  95.7500076  54.4100046
 108.6300087  94.8200035  54.9100018 106.8100071  93.6700058  54.5600033
 105.8400059  93.8900089  54.0500021 107.2700024  92.2800064  54.1100025
 106.6500092  91.4400005  54.4800043 107.2500038  92.2399998  53.0000019
 108.3400059  92.2300053  54.4200039 106.7400074  93.6500072  56.1200047
 107.7200031  93.4400082  56.5800047 106.3200092  94.5800018  56.5400028
 105.8900070  92.9900074  56.4000034 108.4600067  96.0600090  52.0100021
 107.6900005  96.2600040  51.0800028 109.4000053  97.0400047  52.2200012
 110.0700092  96.8100071  52.9200029 109.6400070  98.2700062  51.4100027
 108.7900066  98.9100075  51.5600014 110.7800007  99.1500092  51.8700027
 110.7900047 100.0400066  51.2000036 111.6600037  98.4800053  51.7600012
 110.6500053  99.5700073  53.3600044 110.2800083  98.7700081  54.0300035
 109.9700069 100.4500008  53.4300041 112.0300007  99.9800014  54.0100002
 111.6900063 100.1800060  55.0500011 112.6800060  99.0900040  53.9500046
 112.5700092 101.2600040  53.3700037 111.9000053 102.1100044  53.6300039
 112.6800060 101.0900021  52.2700024 113.9500046 101.6500092  53.9000034
 114.0000057 101.7900085  54.9300003 114.5900059 100.8800030  53.6100006
 114.2200089 102.5400066  53.4300041 109.7500038  97.9900074  49.8500013
 109.1200066  98.6800003  49.0600014 110.5100060  96.9000053  49.4600010
 110.9400082  96.4500046  50.2400017 110.4900074  96.5100002  48.0800009
 110.6600094  97.3700047  47.4500036 111.6500092  95.5000019  47.8700018
 111.5400028  94.7700024  48.7000036 111.5900040  94.8300076  46.5600014
 112.5000095  94.2200089  46.3800001 110.7800007  94.0700054  46.5200043
 111.5000057  95.5600071  45.7300043 112.9800034  96.2700081  47.9900026
 112.9500008  97.0700073  48.7600040 113.2700062  96.7000008  47.0100021
 114.1800022  95.3600025  48.4800005 115.1000023  95.9800053  48.3900023
 114.0000057  94.8000050  49.4300032 114.3300056  94.5600033  47.7300024
 109.1400051  96.0500050  47.5400019 108.7800026  96.4300060  46.3500023
 108.3900070  95.1900005  48.2800007 108.7800026  94.9100018  49.1600037
 107.1400070  94.5600033  47.9400015 107.3500061  94.1500092  46.9600010
 106.7000008  93.5900021  49.0000010 106.7000008  94.2000008  49.9300003
 107.5100040  92.8700066  49.2400026 105.4100037  92.8200054  48.7200022
 105.6300068  92.4600029  47.6900005 104.5900059  93.5800076  48.7100029
 105.0100040  91.8000031  49.7500038 105.5800056  91.6000080  50.9000015
 104.0600014  90.9600067  49.2900038 103.3800030  91.2300014  48.6100006
 103.8700008  90.1800060  49.8900032 105.9500027  95.6400013  47.8000021
 105.1200008  95.6700039  46.8600035 105.9500027  96.6800022  48.7400007
 106.5500069  96.8000031  49.5400047 104.9200058  97.7000046  48.6300039
 104.0000057  97.1600056  48.5100031 104.9600029  98.5900021  49.8600006
 104.6700096  99.6100044  49.5300007 106.0100079  98.7900066  50.1500034
 104.0700054  98.2000065  50.9800005 103.0500031  97.9200077  50.6500006
 104.5600033  96.9900036  51.8600035 105.4000092  97.2400093  52.5300026
 103.6600018  96.6200066  52.4000025 104.9200058  96.1300087  51.2500048
 103.8000011  99.4400024  51.8900013 104.6100044  99.7500038  52.5800037
 103.5200024 100.2900028  51.2300014 102.9400063  99.2500019  52.5700045
 105.0300026  98.6200047  47.4500036 104.0500069  99.1700077  46.9500017
 106.2000084  98.7800026  46.8700027 107.0100021  98.4500027  47.3500013
 106.3200092  99.5900059  45.6700039 105.5600071 100.3600025  45.6500006
 107.6700020 100.2400017  45.5000019 107.7300072 100.7600021  44.5100021
 108.5200024  99.5300007  45.5700016 107.7700043 101.3400078  46.5500021
 107.1200085 102.4400043  46.4100027 108.5800076 101.1600018  47.5600004
 109.0600014 100.2900028  47.6700020 108.7000084 101.9000053  48.2200003
 106.0900021  98.8500023  44.4099998 106.3400078  99.3000031  43.2600021
 105.5900097  97.6100063  44.5400000 105.4600048  97.2500038  45.4600000
 105.1300049  96.7500019  43.5000038 105.7200050  97.0600033  42.6500034
 105.3900051  95.2800083  43.6600018 105.0100040  94.5900059  42.8700018
 104.9400043  95.0000000  44.6300030 106.9500065  95.0100040  43.7700033
 107.3000050  95.5700016  44.6700001 107.4300098  95.3600025  42.8299999
 107.1300030  93.5100079  43.9100027 106.6200066  93.1500053  42.9900026
 106.6000080  93.2400036  44.8500013 108.5400009  93.1599998  43.8300037
 109.1000080  93.6900043  43.1900024 108.9700031  91.8900013  43.9200020
 108.1700039  90.9200001  44.3300009 107.2900009  91.1700058  44.7300005
 108.3700085  89.9500084  44.2000008 110.1800060  91.5400028  43.5900021
 110.9800053  92.1400070  43.6100006 110.4300022  90.6200027  43.9000034
 103.6300087  97.1100044  43.2400036 102.8300095  97.3100090  44.1900015
 103.0900002  97.1900082  41.9900036 103.6600018  96.8900013  41.2300014
 101.7000008  97.3900032  41.7799997 101.2900066  97.8600025  42.6600027
 101.5000057  98.4200001  40.6200027 102.1400070  98.0200005  39.8000026
  99.9600029  98.5100079  40.3800011  99.9100018  99.1800022  39.4900012
  99.4400024  97.5400066  40.2300024  99.5000076  99.1100025  41.1899996
 102.0300007  99.7800064  40.9800005 103.0800056  99.6500015  41.3199997
 101.4600086 100.2300072  41.8200016 102.0900059 100.8100033  39.8400021
 102.3600006 101.8500042  40.1000023 102.8200054 100.3900051  39.1200018
 101.0800076 100.8700085  39.3700027 100.9500027  96.0100079  41.5300035
 101.4500046  95.2800083  40.7200003  99.9400043  95.6400013  42.3100042
  99.5600033  96.2900066  43.5300016 100.4300022  96.5500069  44.1800022
  98.9000034  97.1600056  43.3200026  99.3400002  94.3500042  42.1500015
 100.0500011  93.5900021  42.4500036  98.2000065  94.3300056  43.2300043
  98.1700039  93.2900047  43.6400032  97.3000050  94.8100090  42.8000021
  98.7900066  95.2500057  44.3000031  99.5400047  94.7100067  44.9000025
  98.0400085  95.6000042  45.0400019  98.8200092  93.9400005  40.7900000
  98.4200001  94.8100090  40.0500011  98.7000084  92.6500034  40.5600023
  98.8100052  92.1100044  41.3900042  98.0100060  92.1400070  39.3800020
  97.9600048  92.8600025  38.5700011  98.8300037  90.9300041  38.7900019
  98.3000088  90.3999996  37.9600024  99.0000057  90.2400017  39.6400023
 100.2100086  91.3600063  38.3500028 100.2900028  92.3900032  37.4200010
  99.3800068  92.7600002  36.9800019 101.5300083  92.8400040  36.9900012
 101.5500069  93.6400032  36.2600017 102.6900005  92.2800064  37.4500012
 103.9600086  92.6800060  37.0100021 103.8200092  93.5800076  36.7000008
 101.3800049  90.7800007  38.7800026 101.3200092  89.9600029  39.4900012
 102.6300049  91.2000084  38.2900023 103.5600090  90.8200073  38.7100029
  96.6100025  91.7600060  39.7600007  96.2400055  91.6900063  40.9300041
  95.6700039  91.6000080  38.8000011  95.7500076  91.7800045  37.3500013
  95.7300091  92.8299999  36.9800019  96.7000008  91.2800026  37.0600009
  94.3700027  91.0600090  39.1600013  93.8900089  91.5700054  39.9800014
  93.5600090  91.1800003  37.8600025  93.1400013  92.2100067  37.8300023
  92.7400017  90.4300022  37.7900028  94.6000004  90.9600067  36.7700028
  94.2700005  91.3199997  35.7800007  94.8400021  89.8800087  36.7000008
  94.5100021  89.5600033  39.6600008  95.3200054  88.7500000  39.2300010
  93.6800003  89.2100048  40.7100010  93.2500076  89.9500084  41.2100029
  93.7000084  87.9700089  41.4100027  94.7300053  87.8800011  41.7100000
  92.7300072  87.9500008  42.6100016  92.5699997  86.9099998  42.9500008
  91.7200089  88.2600021  42.2900009  93.2600021  88.8500023  43.7800026
  94.5300007  88.7000084  44.3300009  95.2200031  87.9400063  43.9900017
  94.9500084  89.4799995  45.4200029  95.8800030  89.1000080  45.8200026
  94.0500069  90.4800034  45.9200001  94.2800045  91.0500050  46.8100023
  92.4200058  89.7800064  44.3400002  91.4500046  89.9500084  43.9000034
  92.7600002  90.6500053  45.3700018  91.9000053  91.1700058  45.7700014
  93.4899998  86.6800022  40.6100035  92.9100037  86.7400074  39.5300007
  94.0300083  85.4900074  40.9800005  94.8800087  85.2900028  42.1500015
  95.9000015  85.6500053  41.9099998  94.5000076  85.8600044  43.0200005
  93.6000061  84.1600037  40.4700041  93.6500072  84.2000008  39.3900013
  94.5300007  83.1800079  41.0600042  95.3299999  82.8999996  40.3500032
  93.9700031  82.2399998  41.3000011  94.9200058  83.8300037  42.3800039
  95.9400082  83.4400082  42.6200008  94.1300011  83.5700035  43.1100035
  92.2200012  83.8100052  40.7200003  91.6200066  84.5300007  41.5100002
  91.7500019  82.6800060  40.1800013  92.2700024  82.2200012  39.4700027
  90.4900074  81.9799995  40.6100035  90.2100086  82.6500034  41.4000034
  89.4799995  81.8600082  39.4700027  88.6100006  81.2800026  39.8300028
  89.9400043  81.3300037  38.2100010  89.0799999  81.2700081  37.7700019
  89.1900063  83.3700085  39.1000009  89.2300034  84.0700054  39.9600029
  89.9900055  83.7100029  38.4000015  88.2400036  83.5000038  38.5300016
  90.7900047  80.6599998  41.2100029  91.8100071  80.0300026  40.8800030
  89.9000072  80.1600075  42.0600033  89.2100048  80.8100033  42.3600006
  90.0100040  78.8600016  42.6700020  90.9500027  78.3600044  42.4600029
  89.8400021  78.9400053  44.2500019  88.8700008  79.4300032  44.4800043
  90.6000042  79.6500015  44.6300030  90.1300049  77.6900053  45.1000023
  89.3300056  76.9400024  44.9500036  91.5600014  77.1400023  44.7800016
  91.8300056  76.4100027  45.5800009  91.7500019  76.5800047  43.8400030
  92.2300053  78.0100060  44.9200010  90.0400066  78.0700016  46.6500044
  89.1100025  78.6700058  46.7400026  90.0100040  77.1700048  47.3000002
  90.8300018  78.7900019  46.9600010  88.8900089  77.9400015  42.2900009
  87.7000046  78.3000040  42.3699999  89.2100048  76.7000055  41.6800022
  90.1600075  76.4100027  41.5700006  88.1700039  75.7400036  41.3700008
  87.1900082  76.1500025  41.5600014  88.3400059  75.3000021  39.8700023
  87.6200008  74.5000029  39.5900011  89.3500042  74.8500013  39.7100019
  88.0100060  76.4100027  38.9100027  88.2299995  76.1700058  37.8500009
  88.4899998  77.3400021  39.2900014  86.5200043  76.8600035  38.9300013
  85.9200001  76.0900021  38.4000015  86.0700035  76.8600035  39.9500012
  86.2900066  78.2900047  38.3400011  86.8400002  79.1100025  38.8500023
  85.2100086  78.5400057  38.3200026  86.8200016  78.3000040  36.9500017
  86.6200066  79.2300034  36.5200019  87.8400040  78.0800056  36.9800019
  86.3300037  77.5700045  36.4000010  88.3000088  74.5100021  42.1800041
  89.4099998  74.0400028  42.3699999  87.2000027  73.9400053  42.5600004
  86.3400078  74.3600035  42.2700024  87.0800018  72.7000046  43.3600044
  88.0500031  72.4000025  43.7000036  86.3400078  72.9100037  44.6600008
  86.2000084  71.9900036  45.2700043  85.3200054  73.3600044  44.5600033
  86.9900036  73.9600039  45.5600023  87.1200085  74.9100018  44.9800014
  86.0200024  74.3500042  46.7200041  86.5500069  74.9800014  47.4700022
  85.1800060  74.8800039  46.2300014  85.6100082  73.4500027  47.2300005
  88.3000088  73.3900023  46.0600042  88.1800079  72.3700047  46.4800024
  89.0799999  73.3300018  45.2700043  88.7600040  74.0700054  46.8000031
  86.4200020  71.5700054  42.4500036  85.7100010  71.9500017  41.5300035
  86.6900063  70.2500010  42.6900005  87.4400043  70.0100040  43.3100033
  85.9600067  69.1500044  42.0900011  85.8600044  69.3000031  41.0200024
  86.8100071  67.8000021  42.3100042  87.2600079  67.9800034  43.3100033
  87.4700069  67.8200054  41.4300013  85.9500027  66.4700031  42.2200012
  84.8500061  66.4600039  41.7200041  86.4400005  65.3400040  42.7900028
  87.3099995  65.3300047  43.2700014  85.7400036  64.6300030  42.7600002
  84.5100021  69.1300011  42.6800013  84.3200016  68.9800024  43.8900042
  83.4600067  69.4500017  41.9700003  83.4500027  69.6400023  40.5200005
  84.0000057  70.5300045  40.1500034  83.7800026  68.6900043  40.0400019
  82.1400070  69.6800041  42.5900030  82.2700024  70.2300024  43.5100031
  81.4000034  70.4300022  41.4400005  81.8000031  71.4700031  41.4400005
  80.3000069  70.4800034  41.5700006  81.9500065  69.8300028  40.1700020
  81.9200039  70.3800011  39.2100024  81.3600063  68.8900042  40.0500011
  81.4400005  68.3900023  43.0200005  80.2900028  68.4200048  43.5000038
  82.0800018  67.2000027  42.8900003  82.9400063  67.0300055  42.4300003
  81.4500046  65.9000015  43.2900000  80.3800011  65.9100008  43.1500006
  82.0000076  64.6900034  42.3300028  81.6200066  63.7200022  42.7200031
  83.1100082  64.6700048  42.2399998  81.5000057  64.8800039  40.9000015
  80.3900051  65.4500008  40.7300043  82.2000027  64.4500017  39.9400020
  81.7199993  65.4500008  44.7399998  81.2400055  64.4400024  45.2300024
  82.3900032  66.3300037  45.4900026  82.6200008  67.2100019  45.1000023
  82.8000069  66.0700035  46.8600035  82.6399994  65.0400019  47.1600008
  84.2700005  66.6100025  47.0100021  84.3100071  67.7000046  46.7800045
  84.7000027  66.3900042  48.4500027  85.0100040  65.3400040  48.6400032
  85.6200027  66.9700050  48.6600018  84.0100002  66.7000055  49.2700005
  85.2100086  65.8600044  45.9800005  86.2600040  66.0400009  46.2900019
  84.9900055  66.3600016  45.0100040  85.0699997  64.3500042  45.8400011
  85.6300068  63.8700008  46.6700029  84.0200043  64.0200043  45.6900024
  85.6500053  64.0100050  44.9500036  81.8000031  66.9100046  47.6600027
  81.5600014  68.1000042  47.4800014  81.1100006  66.1800051  48.5400009
  81.4400005  65.2500010  48.6800003  80.0200081  66.7600012  49.3000031
  80.0000000  67.8200054  49.1400003  78.6900043  66.0500050  48.8700008
  78.0100060  66.5800047  49.5800018  78.5900021  64.9900007  49.1900015
  78.1900024  66.2500048  47.3800039  77.3900032  65.4900026  47.3500013
  79.0300035  66.0700035  46.6700029  77.5300026  67.5900030  47.0000029
  77.1600056  67.5900030  45.9500027  76.5200043  67.6000023  47.4600029
  78.3200026  68.8900042  47.1600008  79.2700052  68.6700010  46.6300011
  78.4500027  69.0500021  48.2600021  77.7400017  70.1000023  46.5400028
  76.7500019  70.3300047  46.7700005  78.3000040  70.9500027  46.7700005
  77.9500055  70.0200033  45.5200005  80.1600075  66.6400051  50.8100033
  79.4100046  67.1400023  51.6700029  81.2900066  66.0700035  51.1700010
  81.9300079  65.8600044  50.4300022  81.7500019  65.9900045  52.6000023
  81.0900021  66.5600014  53.2300043  81.7000008  64.5400047  53.1000042
  81.9300079  64.4100046  54.1800022  82.4000072  63.9800024  52.4500036
  80.3299999  63.9200020  52.9200029  79.2000055  64.4900036  53.0000019
  80.3700066  62.5700045  52.5400019  81.2200069  62.2600031  52.1100044
  79.5300055  62.0400047  52.4000025  83.1599998  66.4100027  52.8300047
  84.0500069  66.2600040  52.0000029  83.3900070  66.9900036  54.0600014
  82.8200054  66.7700052  54.8500013  84.5900059  67.7700043  54.3200016
  84.6200085  68.4600019  53.4900045  84.4500065  68.5900021  55.5200005
  83.4100056  68.9700031  55.5000019  84.7000027  67.7300024  56.8700027
  84.6700001  68.5900021  57.5700045  83.9700031  66.9300032  57.1300030
  85.7500076  67.3700047  56.9500017  85.4300022  69.8300028  55.4600048
  86.5000057  69.5200014  55.4200029  85.2600002  70.3300047  56.4400005
  85.2500057  70.9400034  54.4400024  85.6599998  70.6200027  53.4600019
  84.1700077  71.1800051  54.3300009  85.6400013  71.8800020  54.8900032
  85.8500004  66.9200039  54.2700005  86.8900013  67.3300028  53.8400030
  85.7299995  65.6000042  54.6300030  84.9200058  65.1400042  54.9800014
  86.8300056  64.7500038  54.7400045  87.7100086  65.3200054  55.0000048
  86.6300011  63.7500048  55.8500004  87.4900055  63.0700016  56.0200024
  85.8400059  63.0100012  55.6000042  86.2500000  64.3000031  57.2700024
  85.3299999  64.9100018  57.1800041  87.1100044  64.9000025  57.6600027
  85.9300041  63.1500053  58.1300020  84.7600079  62.7600050  58.2700014
  86.8500042  62.5500011  58.7600040  87.1600056  64.0200043  53.4500027
  88.0200005  63.1000042  53.4000015  86.3600063  64.2500019  52.3700047
  85.6800079  64.9700022  52.3100042  86.5799999  63.5500050  51.1300039
  87.0100021  62.5700045  51.2700033  85.1300049  63.3100033  50.5700016
  85.2900028  62.6900053  49.6700001  84.6100044  64.2600012  50.3200006
  84.2300034  62.4000025  51.4400005  84.6800041  61.8400049  52.5000048
  83.0500031  62.1500015  51.0400009  87.5500011  64.1300011  50.0500011
  87.9400063  63.5100031  49.0700006  87.9700089  65.4100037  50.2600002
  87.6300049  66.0000038  51.0000038  88.9200020  66.1800051  49.4800043
  88.5300064  66.1200047  48.4800005  89.0100002  67.6600027  49.9100018
  89.9600029  68.1600046  49.6200037  89.1000080  67.7200031  51.0100031
  87.8600025  68.5700035  49.5800018  86.7900085  68.6700010  50.5300045
  86.8000031  67.9300022  51.3100004  85.6400013  69.5200014  50.2900028
  84.7500038  69.6500015  50.8800030  85.7700062  70.5000019  49.3400002
  85.0200081  71.2700033  49.2400026  87.8600025  69.4700050  48.5500002
  88.6000061  69.4900036  47.7600002  86.8400002  70.4500055  48.4400034
  86.7700005  71.0300016  47.5400019  90.3400040  65.5900049  49.4900036
  90.9100056  65.2500010  50.4900026  90.9300041  65.6000042  48.3200026
  90.4100037  65.8100033  47.5000000  92.3800087  65.2600050  48.0200005
  92.8400040  65.0300026  48.9700031  92.5600052  64.0600014  47.1000004
  93.6300087  63.7900019  47.0400000  92.0400047  64.4100046  45.7800007
  91.1300087  64.7000027  45.8700037  91.7800045  62.8800011  47.8299999
  92.1200085  61.8700027  47.5100040  91.9900036  63.0400038  48.9100027
  90.6700039  62.9300022  47.7100039  92.9800034  66.4700031  47.4100018
  92.2900009  67.3800039  46.9000006  94.2600060  66.6200018  47.4900007
  94.7000027  65.9400034  48.0600023  95.1200008  67.6600027  46.8300009
  94.8000050  68.5700035  47.3200035  96.6400051  67.4500036  47.0100021
  96.7200089  67.3500013  48.1100035  97.0300007  66.1800051  46.2600040
  97.0700073  66.2900019  45.1500034  98.0600071  65.9600019  46.6100025
  96.3800049  65.3200054  46.5000010  97.5600052  68.6400032  46.6500044
  97.4300003  68.8900042  45.5700016  98.5400009  68.2100010  46.9400024
  97.2400093  69.8000050  47.5600004  97.0100021  69.5500040  48.6200047
  98.0100060  70.6100035  47.5300026  96.2500000  70.2500010  47.3300028
  94.8000050  67.9600048  45.3900003  94.8200035  69.1200018  45.0500011
  94.4500065  67.0000029  44.5600033  94.3800068  66.0700035  44.9200010
  94.0900040  67.1100044  43.1599998  94.7300053  67.8900051  42.7700043
  94.3000031  65.8800030  42.2500038  95.3800011  65.9300041  42.0100021
  93.7800026  65.8300018  41.2700033  93.9400005  64.7700024  43.0600023
  93.0200005  64.7600031  43.3300018  92.7600002  67.6400042  42.8800011
  92.4600029  67.9900026  41.7600012  91.9200039  67.6900053  43.8800001
  92.0800018  67.2800016  44.7700024  90.6200027  68.3000040  43.6900043
  90.2400017  68.0700016  42.7100039  89.6700001  67.7800035  44.8800039
  88.6900043  68.2700014  44.7399998  90.0900078  68.1000042  45.8600044
  89.4900036  66.3100052  44.8300028  89.2000008  65.7500029  43.7500000
  89.6300030  65.6700039  45.9000015  90.6500053  69.8500013  43.6100006
  89.6100044  70.4200029  43.3100033  91.7600060  70.4800034  43.9499998
  92.4600029  69.9100018  44.3900013  91.8500042  71.9300032  44.0900040
  90.9000015  72.4500036  44.1500044  92.6700020  72.4800014  45.3500032
  92.5699997  73.5900021  45.3400040  93.7300014  72.1500015  45.4000044
  92.0300007  72.0900011  46.6800022  92.2900009  70.7100010  47.1100044
  93.0000019  70.0600052  46.6200018  91.7600060  70.3100014  48.2700014
  92.0800018  69.3700027  48.6900043  91.0000038  71.1600018  49.0900040
  90.6500053  70.8400011  50.0600004  91.3300037  72.9900026  47.4400043
  91.1300087  74.0000057  47.1100044  90.8200073  72.4400043  48.6400032
  90.1900005  73.0700016  49.2600012  92.6200008  72.4200058  42.8400040
  93.7300014  72.0100021  42.5900030  92.0300007  73.4200048  42.0200014
  91.0600090  73.6300039  42.1000004  92.7700043  73.9400053  40.8800030
  93.7900066  73.5900021  40.9100008  92.2900009  73.6000013  39.5200014
  91.3300037  74.0800047  39.2500019  92.2000027  72.2400045  39.3300009
  91.5100002  71.9300032  39.9300027  93.3600044  74.1200018  38.5200024
  94.3800068  73.7400055  38.7300014  93.0100060  73.9400053  37.4800014
  93.5700035  75.2100039  38.5900021  92.8900051  75.4900026  41.0600042
  91.9000053  76.1600018  41.1600018  94.1100025  76.0600042  41.1500025
  94.9700069  75.5600023  41.2100029  94.4500065  77.4900055  41.1400032
  93.6500072  78.0800056  41.5600014  95.7800007  77.8600025  41.7700005
  96.6200066  77.3100042  41.2900019  96.0400009  79.3700027  41.5600014
  95.2800083  79.8700047  42.2000027  97.0600033  79.6900034  41.8400002
  95.9300041  79.7200060  40.5100012  95.7600021  77.3900032  43.2600021
  95.3600025  76.3500023  43.3300018  95.0200081  78.0000019  43.8200045
  97.2400093  77.3400021  43.7500000  97.3800087  76.8800020  44.7500038
  97.8700066  76.8000031  43.0100012  97.6600075  78.3600044  43.8900042
  94.5200062  77.8400040  39.6500015  95.3299999  77.3200035  38.9100027
  93.7200069  78.8100052  39.1000009  93.0500031  79.2400026  39.7000027
  93.6600018  79.1900015  37.7600026  94.3100071  78.5300016  37.2100019
  92.1700001  78.9700031  37.3000026  91.9300079  79.5700026  36.4000010
  91.4800072  79.4200039  38.0400014  91.7700005  77.4900055  37.1000028
  91.6800022  76.8800020  38.0200028  92.4700069  76.9500017  36.4300013
  90.3299999  77.5100040  36.3600016  89.4600010  78.3700037  36.6700006
  90.0600052  76.4900017  35.5600023  90.8200073  75.9000015  35.2900028
  89.2600060  76.6700029  34.9900007  94.0400028  80.6400013  37.6100016
  93.3600044  81.4900017  38.1400013  95.2200031  80.9600067  36.9100022
  95.7600021  80.1700020  36.6500020  95.4900074  82.3500061  36.5500021
  96.2700081  82.1900082  35.8200026  94.3100071  83.0000019  35.8000016
  94.5000076  84.0900040  35.6700015  93.3400059  82.9699993  36.3500023
  94.1500092  82.4300003  34.3600011  95.1900005  82.3500061  33.6800027
  92.9500008  82.0900059  33.8700008  92.1800041  82.2700024  34.4700027
  92.8400040  81.7500019  32.9300022  96.2500000  83.1900024  37.5300026
  96.0200024  84.4000053  37.6500010  97.1000004  82.7100086  38.4000015
  97.1500015  81.7199993  38.4400010  97.8800011  83.4200001  39.4300008
  97.2100067  84.1700077  39.8200011  98.2500076  82.5000000  40.6500006
  98.6900043  81.5500069  40.2600002  97.3600006  82.1900082  41.2400007
  99.1800022  83.0900002  41.5799999  98.8000011  84.3700027  42.1099997
  97.8400040  84.7399998  41.8000031  99.5200062  84.9500084  43.1400013
  99.2000008  85.8400059  43.6500025 100.6000042  84.2100048  43.6700010
 101.3700008  84.5400047  44.8500013 101.0400009  85.3500080  45.2400017
 100.3300095  82.4900055  42.0000029 100.6500053  81.6600037  41.3900042
 100.9700012  82.9800034  43.1200027 101.8000031  82.4200058  43.5200024
  98.9900017  84.1800022  38.8900018 100.0900078  83.6600018  38.7400007
  98.8000011  85.4699993  38.6300015  97.8800011  85.8000088  38.8200021
  99.8200035  86.3100052  38.0200028 100.4900074  85.6200027  37.5200009
  99.2400074  87.4200058  37.1100020  98.6800003  88.1500053  37.7200007
 100.4200077  88.1300068  36.4700007 101.0500050  87.3099995  36.0700011
 100.1000023  88.7000084  35.5800009 101.1100006  88.6800003  37.1400023
  98.3600044  86.8800068  36.0100007  98.0500031  87.7800083  35.4500008
  98.8900089  86.0400009  35.5100012  97.4300003  86.4500046  36.4500022
 100.5800056  86.9300079  39.2500019 100.0000000  87.2300053  40.2900028
 101.9300079  86.9900036  39.1500020 102.2400093  86.6100025  38.2900023
 102.7200031  87.3800087  40.2400017 102.1700096  88.1700039  40.7200003
 102.8900051  86.2100029  41.2400007 101.8600082  86.0400009  41.6300011
 103.6200047  86.4400005  42.0500040 104.8500061  84.9500084  40.0800037
 105.4400063  85.7400036  39.9000025 103.5800076  85.0100040  40.5200005
 105.0500011  83.7500000  39.5800018 106.0200024  83.5200024  39.1400027
 103.9600086  83.0000019  39.6500015 103.0300045  83.8000011  40.2200031
 102.0000076  83.4700012  40.2100039 104.1100025  88.0500031  39.9700022
 104.9200058  87.6100063  39.1500020 104.3800068  89.1000080  40.7100010
 103.6900043  89.4200039  41.3600016 105.7100010  89.6300030  40.8800030
 106.2100029  89.8500061  39.9400020 105.7700062  90.7800007  41.8200016
 106.7700005  91.1800003  42.1099997 105.2800083  90.5800056  42.8000021
 105.9300041  92.8900051  40.5600023 105.1500034  91.9700050  41.2500000
 105.0900078  93.8300037  40.2200031 105.3900051  94.7399998  39.7000027
 103.8200092  93.5700035  40.6500006 103.0700016  94.2300034  40.7000017
 103.8700008  92.3600006  41.2900019 102.9700089  92.0300007  41.7900038
 106.6900063  88.5200024  41.4700031 106.1700058  87.5200081  42.0200014
 108.0200005  88.7000084  41.2500000 108.4300041  89.4700050  40.7600021
 109.0800095  87.7500057  41.6200018 108.9000034  86.8300056  41.0800028
 110.4800034  88.2400036  41.1600018 110.4800034  89.2700005  41.5600014
 110.4300022  88.2600021  40.0500011 111.7100048  87.4700069  41.5799999
 111.5000057  86.4100075  41.3000011 111.8700027  87.5400066  42.6800013
 112.9900074  87.9600048  40.8100033 113.4700012  89.0700054  41.1300039
 113.5000038  87.2600079  39.9500012 109.0900040  87.2800064  43.1300020
 108.7200069  88.0600071  44.0200043 109.4000053  85.9899998  43.5000038
 109.6800041  85.4200077  42.7300024 109.6000099  85.5200005  44.8100042
 108.6500072  85.5000019  45.3100014 110.1500034  84.0700054  44.8000002
 111.1000061  83.9600086  44.2300034 109.3700027  83.5000038  44.2400026
 110.3400040  83.4300041  46.1800003 109.4700050  83.6500072  46.8500042
 111.1600018  83.8899994  46.7700005 110.6200027  81.9200039  46.1400032
 110.6100082  81.3800049  47.1100044 109.8400021  81.5000057  45.4600000
 111.9200039  81.5200043  45.4100037 112.0200062  81.8800068  44.3700027
 111.9400024  80.4100037  45.4000044 113.0700016  81.9799995  46.2900019
 112.9500008  81.8400002  47.3200035 113.9500046  81.4700031  46.0700035
 113.3600044  82.9500008  46.0800028 110.4300022  86.3800049  45.6800032
 111.6000080  86.6700077  45.4000044 109.9200058  86.6100025  46.9300032
 109.1500092  86.1600018  47.3699999 110.6800079  87.4400043  47.9100037
 111.5900040  87.7800083  47.4400043 109.9900055  88.7000084  48.3300018
 109.0800095  88.4100056  48.9000034 110.8400059  89.5900059  49.3200016
 110.5000019  90.6400013  49.4500017 110.7100010  89.2400074  50.3700018
 111.8800068  89.6300030  48.9500046 109.4600010  89.5500088  47.1300030
 108.9200020  88.9300060  46.3900042 110.3400040  89.8400021  46.5100002
 108.7000084  90.7700062  47.3800039 109.2500019  91.5000057  48.0200005
 108.2700062  91.2200069  46.4600039 107.8500080  90.7200050  48.0900002
 111.0300064  86.5799999  49.0700006 110.1300049  85.8800030  49.5600033
 112.3400021  86.5700054  49.5200014 113.1400013  87.0100021  49.1200018
 112.5900078  85.9700012  50.8200026 111.9500065  85.1100063  50.9500027
 114.1000080  85.5300045  51.0000038 114.4000053  84.9800014  50.0800037
 114.2700100  84.7900009  51.8000031 115.0600052  86.5500069  51.1700010
 114.8700047  86.8400002  52.0700026 112.2700024  86.9300079  51.9700003
 112.8000069  88.0600071  52.0200014 111.5800095  86.5500069  53.0200005
 111.1000061  85.6700039  53.0700016 111.3800049  87.3200035  54.2300034
 110.9400082  88.2400036  53.8800049 110.3500080  86.7300034  55.2800035
 110.5300045  87.0600033  56.3300037 110.5800056  85.6400013  55.2100039
 108.8700008  86.8700027  54.8300028 108.2300091  86.6100025  55.7000017
 108.7300014  86.0700035  54.0700006 108.1900024  88.5200024  54.0800047
 109.0700054  89.6400070  55.1900005 109.6400070  89.0799999  55.9600019
 109.8300076  90.2600002  54.6600008 108.4700012  90.4200077  55.7000017
 112.6300049  87.7100086  54.9600029 112.8000069  88.8800049  55.2100039
 113.4800053  86.7700005  55.3500032 113.2600021  85.8000088  55.3000021
 114.7900009  87.0900059  55.8900023 114.7800064  88.1599998  56.0500050
 115.0600052  86.2400055  57.1600008 115.1500034  85.1700020  56.8700027
 114.2300034  86.2800026  57.8900051 116.3600063  86.5000057  57.9100037
 117.0500088  87.4800014  57.5600004 116.7500019  85.7100010  58.8400030
 115.7300091  86.9200039  54.6900034 115.6400013  85.9800053  53.8800049
 116.6200066  87.9300022  54.3700027 116.6500092  88.7100029  54.9900007
 117.4500084  87.9300022  53.2500029 117.2400093  87.1600056  52.5200033
 117.3100090  89.2600060  52.4700022 117.8700066  89.1700077  51.5200043
 117.8100014  90.0900078  53.0200005 115.9200096  89.8200035  52.3000002
 115.4200077  89.9100018  53.2800007 115.3200054  89.0600014  51.7500019
 116.0400009  91.3400078  51.4100027 114.8500061  90.9400082  50.0200033
 113.8400078  90.6400013  50.3600025 114.6600056  91.8300056  49.3700027
 115.2300072  90.1700020  49.3300009 118.8700104  87.6700020  53.6000013
 119.8700047  87.8500080  52.8700018 119.0800095  87.1400070  54.8400021
 118.3000088  86.8800068  55.4000044 120.4000092  86.8000031  55.3800011
 121.0200024  87.6800060  55.2800035 120.4300022  86.6700077  56.8900013
 121.4500046  86.6100025  57.3300028 119.8700047  87.5000000  57.3700047
 119.8600101  85.8000088  57.2900009 121.1100101  85.7200050  54.5300007
 120.5000019  84.8200035  53.8700008 122.4300098  85.7800007  54.4600010
 122.9800034  86.2900066  55.1200008 123.1600094  84.8000050  53.6200047
 122.6100063  83.8800049  53.4700012 123.4900093  85.5600071  52.3500013
   0.4500000  84.8300076  51.7200041 122.4700069  85.6700039  51.9300032
   0.4500000  86.5300083  52.4800014   0.9300000  84.4300079  54.3300009
   1.5100001  85.0800037  55.1500034   1.4700000  83.1800079  54.0300035
   2.3300001  83.1200027  54.4500017
