Cpptraj Generated Restart                                                       
 9043
 104.2429257  10.4030540  28.6941193 104.7529257  10.5230540  29.5941193
 104.9229257  10.5830540  27.9341193 103.5329257  11.1630540  28.5941193
 103.5729257   9.0830540  28.7441193 104.4029257   8.4130540  28.9441193
 102.4429257   9.0230540  29.8041193 101.8229257   8.1030540  29.6941193
 101.6929257   9.8430540  29.6941193 103.0029257   8.8130540  31.2641193
 103.6129257   9.7330540  31.4141193 103.6429257   7.9130540  31.3041193
 101.7029257   8.6230540  32.5341193 100.8829257   7.1630540  31.9341193
 101.6729257   6.4930540  31.5341193 100.1729257   6.7030540  32.6641193
 100.1029257   7.4830540  31.2141193 102.9329257   8.7730540  27.3441193
 101.8029257   9.1730540  27.0841193 103.5329257   7.9030540  26.5241193
 104.4729257   7.6330540  26.7341193 102.9629257   7.2130540  25.3241193
 102.3729257   7.8730540  24.7141193 104.1029257   6.8330540  24.3841193
 104.6929257   6.1430540  25.0241193 104.8329257   7.6430540  24.1841193
 103.7229257   6.0030540  23.0941193 103.3429257 128.6130540  23.4841193
 104.7129257   5.8530540  22.6041193 102.5029257   6.7830540  22.0741193
 103.5929257   8.1630540  21.6341193 104.6429257   7.8330540  21.4841193
 103.1929257   8.8730540  20.8941193 103.6029257   8.8130540  22.5441193
 101.9829257   6.1230540  25.6241193 102.4229257 128.7430540  26.1641193
 100.7229257   6.2730540  25.1841193 100.3729257   7.0030540  24.6141193
  99.7729257 128.7730540  25.5041193 100.1429257 128.3730540  26.4341193
  98.2729257   5.7730540  25.7241193  97.5229257 128.5330540  25.8041193
  98.0129257   6.2230540  24.7341193  98.0929257   6.7030540  26.9341193
  98.6529257   7.6530540  26.8641193  98.4929257   6.2530540  27.8741193
  96.6329257   7.1130540  27.3441193  96.1429257   6.7230540  28.4041193
  96.0429257   8.0130540  26.6141193  99.7129257 127.6930540  24.4441193
  99.9529257 127.8230540  23.2441193  99.5729257 126.4830540  24.9241193
  99.5829257 126.2830540  25.8941193  99.2329257 125.2830540  24.1341193
  99.8729257 125.2130540  23.2541193  99.3929257 124.0230540  25.0641193
  98.9529257 123.1430540  24.5341193  99.0529257 124.1730540  26.1041193
 100.8529257 123.6930540  25.3841193 100.7729257 122.7430540  25.9341193
 101.3429257 124.4730540  26.0241193 101.6229257 123.3730540  24.0241193
 101.3729257 122.3130540  23.4141193 102.5429257 124.2430540  23.5541193
 102.8329257 125.0130540  24.1241193 102.9429257 124.0530540  22.6541193
  97.8229257 125.2630540  23.5441193  96.7829257 125.6730540  24.0941193
  97.7929257 124.6930540  22.3341193  98.6629257 124.5630540  21.8541193
  96.5529257 124.3730540  21.6241193  95.9629257 125.2730540  21.5841193
  96.8629257 123.9330540  20.2041193  97.8429257 123.4030540  20.2541193
  95.7929257 123.0430540  19.5241193  96.0629257 122.7730540  18.4841193
  95.7529257 122.1330540  20.1541193  94.8029257 123.5230540  19.3941193
  97.1929257 125.1430540  19.3841193  96.3629257 125.8630540  19.4941193
  98.1529257 125.6230540  19.6841193  97.4229257 124.9930540  18.3041193
  95.7429257 123.3530540  22.4041193  94.5229257 123.4730540  22.5341193
  96.4029257 122.3230540  23.0441193  97.3929257 122.3630540  23.0441193
  95.6129257 121.4830540  23.9241193  94.8629257 121.0030540  23.3141193
  96.3629257 120.1630540  24.2641193  96.7829257 119.7230540  23.3341193
  95.6029257 119.4430540  24.6241193  97.6729257 120.3730540  25.4541193
  98.4129257 120.6230540  24.3941193  94.9229257 122.0330540  25.1741193
  93.8229257 121.6530540  25.4741193  95.6329257 123.0030540  25.8541193
  96.5929257 123.2030540  25.6641193  95.0729257 123.8930540  26.8541193
  94.6129257 123.1730540  27.5141193  96.2729257 124.6630540  27.4641193
  95.8329257 125.5530540  27.9641193  96.9529257 125.0630540  26.6841193
  97.1329257 123.7730540  28.4541193  96.4729257 122.9530540  29.1141193
  98.3429257 123.9130540  28.6641193  93.9929257 124.8730540  26.4141193
  92.9829257 125.0530540  27.0841193  94.0929257 125.6730540  25.3241193
  94.9629257 125.6730540  24.8541193  92.9929257 126.5930540  24.8241193
  92.7129257 127.2830540  25.6041193  93.4229257 127.4430540  23.6241193
  93.7029257 126.7830540  22.7741193  92.3629257 128.4530540  23.1941193
  92.7929257 128.9730540  22.3041193  91.3429257 128.0530540  23.0241193
  92.0529257   5.6430540  23.9341193  94.6629257 128.2930540  24.0841193
  94.3729257 128.8930540  24.9741193  95.5529257 127.6730540  24.2841193
  94.9329257 129.0430540  23.3041193  91.7829257 125.8830540  24.4341193
  90.6729257 126.2330540  24.7741193  91.8329257 124.6830540  23.8341193
  92.6629257 124.1730540  23.6141193  90.6129257 124.0530540  23.2941193
  89.7529257 124.7030540  23.2441193  91.0329257 123.7130540  21.8341193
  90.2929257 123.0630540  21.3241193  92.0229257 123.2030540  21.8641193
  91.1829257 124.9930540  20.9641193  90.0929257 125.8230540  20.6941193
  89.2129257 125.7230540  21.3141193  90.1529257 127.0430540  20.0541193
  89.2729257 127.6530540  19.9441193  91.3429257 127.3930540  19.4541193
  91.3829257 128.2830540  18.8441193  92.3429257 125.3430540  20.2841193
  93.2129257 124.7430540  20.4941193  92.4929257 126.5630540  19.6241193
  93.4629257 126.7730540  19.2241193  90.1429257 122.8230540  24.0841193
  89.2529257 122.1030540  23.6541193  90.7829257 122.6830540  25.2741193
  91.3929257 123.4330540  25.5241193  90.4829257 121.5530540  26.1541193
  91.4429257 121.3830540  26.6141193  89.5629257 122.0330540  27.3641193
  89.2529257 121.1830540  28.0041193  88.5929257 122.5330540  27.1541193
  90.3729257 122.9630540  28.2141193  91.3329257 122.5730540  28.9241193
  89.9729257 124.1330540  28.3241193  90.2529257 120.1430540  25.4941193
  89.1429257 119.5230540  25.7441193  91.2629257 119.6030540  24.7541193
  92.0729257 120.1830540  24.6341193  91.3529257 118.3630540  24.0841193
  90.3429257 118.0630540  23.8241193  92.2529257 118.5530540  22.8241193
  93.3129257 118.6330540  23.1541193  92.0729257 117.2730540  21.9841193
  92.5829257 116.3830540  22.4141193  90.9829257 117.0230540  21.9241193
  92.5329257 117.4230540  20.9941193  91.9229257 119.8030540  21.9441193
  92.0529257 120.8230540  22.3841193  90.8429257 119.6730540  21.7441193
  92.8129257 120.0030540  20.7241193  93.8529257 119.9630540  21.1341193
  92.7729257 119.2730540  19.8941193  92.6829257 121.0130540  20.2741193
  91.8729257 117.2930540  25.0541193  93.0429257 117.2430540  25.4041193
  90.9529257 116.2930540  25.3341193  90.0629257 116.3030540  24.8841193
  91.2729257 115.1030540  26.1541193  92.3029257 115.2030540  26.4841193
  90.5429257 114.8930540  27.4841193  91.0129257 114.1430540  28.1441193
  89.5029257 114.5530540  27.2841193  90.5329257 116.2330540  28.2841193
  91.5329257 116.5530540  29.1941193  92.3529257 115.8630540  29.2341193
  91.5929257 117.7730540  29.8441193  92.3729257 118.0030540  30.5541193
  90.5229257 118.7030540  29.6041193  90.5829257 119.9330540  30.2741193
  90.4929257 120.6330540  29.6241193  89.5529257 117.2130540  28.0141193
  88.8329257 116.8930540  27.2741193  89.4929257 118.4430540  28.6741193
  88.6429257 119.1030540  28.5841193  91.1829257 113.9130540  25.2741193
  90.7229257 113.9430540  24.1141193  91.7829257 112.8330540  25.6841193
  92.1829257 112.8330540  26.5941193  91.5129257 111.6130540  25.0141193
  90.9229257 111.7830540  24.1241193  92.8829257 110.9530540  24.6041193
  93.4729257 111.7430540  24.1041193  93.3629257 110.5030540  25.5041193
  92.5829257 110.1430540  23.9041193  90.8329257 110.7230540  26.0041193
  90.9029257 110.8930540  27.1941193  90.1929257 109.6930540  25.5741193
  90.1929257 109.5230540  24.5841193  89.5429257 108.6530540  26.3541193
  90.0429257 108.5830540  27.3141193  88.1029257 108.9430540  26.7441193
  88.0929257 109.8930540  27.3241193  87.1629257 109.2730540  25.5541193
  86.1829257 109.6530540  25.9241193  87.5129257 110.0230540  24.8241193
  86.8829257 108.3230540  25.0541193  87.5429257 107.9730540  27.6841193
  88.3129257 107.7130540  28.4441193  87.2429257 107.0630540  27.1241193
  86.3429257 108.3430540  28.6341193  86.5529257 108.8330540  29.6041193
  85.6129257 109.0230540  28.1641193  85.9229257 107.3430540  28.9041193
  89.6829257 107.3030540  25.6241193  89.3929257 107.2530540  24.4041193
  90.1429257 106.2130540  26.2841193  90.3629257 106.2530540  27.2541193
  90.4429257 105.0330540  25.5441193  89.6029257 104.9030540  24.8641193
  91.8729257 104.9930540  24.9541193  91.8929257 105.7630540  24.1541193
  92.0629257 104.0030540  24.4841193  93.2629257 105.4630540  26.0041193
  93.3629257 104.3930540  26.7841193  90.2529257 103.9130540  26.5241193
  90.2229257 104.1930540  27.7441193  90.0329257 102.6630540  25.9741193
  89.8429257 102.6630540  24.9941193  89.9229257 101.4430540  26.8141193
  90.1429257 101.6830540  27.8441193  88.4829257 100.7930540  26.8141193
  87.7629257 101.4830540  27.3041193  88.0529257 100.5630540  25.8141193
  88.4929257  99.9530540  27.5441193  90.9529257 100.4530540  26.2641193
  91.0429257 100.1030540  25.1041193  91.7329257  99.7730540  27.1641193
  91.5929257  99.6830540  28.1541193  92.7929257  98.8730540  26.6641193
  92.7129257  98.6430540  25.6141193  94.2929257  99.4930540  26.6741193
  95.0629257  98.7330540  26.4441193  94.5029257  99.9030540  27.6841193
  94.4029257 100.9430540  25.6541193  93.2129257 101.4530540  25.9541193
  92.8029257  97.6130540  27.4041193  92.6229257  97.6230540  28.6341193
  92.9729257  96.5030540  26.6341193  92.8229257  96.5030540  25.6441193
  93.1729257  95.1530540  27.2541193  93.0129257  95.1430540  28.3241193
  92.1229257  94.1530540  26.7241193  91.1429257  94.6330540  26.9441193
  92.1529257  93.2330540  27.3441193  92.2229257  93.7630540  24.9141193
  92.9929257  92.6930540  25.0541193  94.6329257  94.6230540  27.1841193
  95.4829257  95.2430540  26.5541193  94.9529257  93.4930540  27.8741193
  94.1829257  93.0330540  28.3041193  96.1729257  92.7330540  27.8541193
  96.9629257  93.4630540  27.8041193  96.4529257  91.9430540  29.1241193
  97.4329257  91.4130540  29.0341193  95.7229257  91.1330540  29.2841193
  96.2829257  92.7730540  30.4641193  95.2529257  93.1630540  30.5541193
  97.0029257  93.6230540  30.4841193  96.6029257  92.0030540  31.7141193
  97.6429257  91.6130540  31.6341193  96.5629257  92.6830540  32.5841193
  95.7229257  90.7530540  31.8241193  96.1029257  89.8030540  31.3841193
  94.6529257  90.9930540  31.6341193  95.7129257  90.2930540  33.2941193
  95.0829257  89.4730540  33.3641193  96.6629257  89.9330540  33.5241193
  95.3629257  91.0030540  33.9641193  96.1529257  91.8630540  26.5341193
  95.1229257  91.3730540  25.9841193  97.3729257  91.8130540  25.9241193
  98.1829257  92.1030540  26.4241193  97.5829257  91.2730540  24.5941193
  96.6929257  91.3630540  23.9941193  98.6929257  92.1130540  23.9141193
  99.6029257  92.1030540  24.5641193  99.0129257  91.4830540  22.5741193
  99.5229257  92.2330540  21.9341193  99.7429257  90.6730540  22.7941193
  98.1029257  91.0430540  22.1141193  98.2929257  93.5630540  23.7541193
  97.3529257  93.6630540  23.1741193  98.2029257  94.0130540  24.7741193
  99.0229257  94.1630540  23.1641193  97.8929257  89.7330540  24.6041193
  98.5329257  89.2230540  25.5141193  97.2929257  88.9530540  23.6641193
  96.6529257  89.3630540  23.0241193  97.4529257  87.4430540  23.5641193
  96.8129257  87.0030540  24.3141193  97.0429257  87.0230540  22.1741193
  97.8829257  87.2430540  21.4841193  96.0929257  87.5230540  21.8941193
  96.7629257  85.5030540  22.0541193  97.3929257  84.9230540  22.7641193
  97.0529257  85.1730540  21.0341193  95.3529257  85.1630540  22.3141193
  94.5829257  84.8430540  21.3641193  95.0029257  84.9930540  23.5441193
  98.8729257  86.9830540  23.8541193  99.0129257  86.0730540  24.6441193
  99.9729257  87.5430540  23.2241193  99.8129257  88.2930540  22.5841193
 101.3629257  87.4230540  23.6341193 101.6129257  88.4430540  23.8541193
 101.6729257  86.5230540  24.8841193 101.4229257  85.4930540  24.5541193
 100.9129257  86.8730540  25.6141193 103.0229257  86.6030540  25.3241193
 103.0329257  86.5830540  26.2841193 102.3329257  86.9730540  22.4841193
 102.0629257  86.0030540  21.8541193 103.3629257  87.7430540  22.2241193
 103.5529257  88.5830540  22.7241193 104.3229257  87.5730540  21.1841193
 103.9329257  86.8330540  20.5041193 104.4929257  88.9130540  20.4841193
 105.0929257  89.5530540  21.1741193 103.5629257  89.5030540  20.3441193
 105.0429257  88.8430540  19.0341193 105.6829257  87.9730540  18.7641193
 105.5529257  89.7730540  18.7241193 103.8529257  88.6630540  18.1041193
 103.2629257  87.7630540  18.3941193 103.0729257  89.4230540  18.2741193
 104.2229257  88.7230540  16.6041193 104.6529257  89.7230540  16.3741193
 103.3529257  88.6530540  15.9141193 105.2029257  87.6630540  16.2941193
 106.1529257  88.0530540  16.4541193 104.9429257  86.7730540  16.7741193
 105.2629257  87.3030540  15.3141193 105.6229257  87.1930540  21.8741193
 106.5429257  86.5330540  21.4041193 105.6229257  87.4330540  23.2041193
 104.8929257  87.9730540  23.6141193 106.6929257  86.9530540  24.1141193
 107.6729257  87.0130540  23.6541193 106.4629257  87.8530540  25.3941193
 105.4829257  87.6930540  25.8841193 106.6729257  88.9230540  25.1841193
 107.4429257  87.5130540  26.5441193 107.0329257  87.1230540  27.6041193
 108.7229257  87.9230540  26.3841193 108.9029257  88.4130540  25.5341193
 109.4329257  87.6930540  27.0541193 106.5629257  85.4230540  24.4841193
 107.5829257  84.8130540  24.7441193 105.3729257  84.9330540  24.4441193
 104.5429257  85.4730540  24.3441193 105.0129257  83.5130540  24.5141193
 104.0429257  83.5330540  24.0541193 105.8629257  82.5030540  23.6941193
 106.8529257  82.5030540  24.2141193 105.9329257  82.8630540  22.6541193
 105.4629257  80.9430540  23.6841193 104.4229257  80.9930540  23.2941193
 105.3129257  80.5130540  24.6941193 106.5229257  80.1530540  22.9741193
 107.4529257  79.5130540  23.5341193 106.4929257  80.1930540  21.7341193
 104.7929257  82.9630540  25.8741193 105.6329257  83.0130540  26.7741193
 103.5729257  82.4530540  26.1841193 102.8329257  82.3930540  25.5141193
 103.1929257  81.9030540  27.4641193 102.1829257  81.5630540  27.3041193
 103.9229257  81.1330540  27.6541193 103.1129257  82.8930540  28.6741193
 103.1129257  84.0930540  28.5341193 103.0929257  82.3230540  29.8141193
 102.9829257  81.3430540  29.8941193 103.2129257  83.0730540  31.0041193
 103.8729257  83.9230540  30.8441193 101.9429257  83.8230540  31.4741193
 101.6829257  84.7630540  30.9441193 102.1229257  84.2030540  32.5041193
 100.7029257  82.9830540  31.4641193  99.9529257  83.3030540  32.2241193
 101.0529257  81.9530540  31.7041193  99.8429257  83.1630540  30.2141193
 100.3629257  82.9930540  29.2541193  99.0829257  82.3530540  30.3341193
  99.0929257  84.5230540  30.2141193  98.8529257  84.9430540  31.2141193
  98.0929257  84.4030540  29.7441193  99.8329257  85.6430540  29.5941193
 100.3429257  85.2830540  28.7641193  99.2429257  86.4230540  29.2541193
 100.4429257  86.2230540  30.2041193 103.8029257  82.2630540  32.1641193
 103.1729257  81.3030540  32.6541193 104.9529257  82.6330540  32.6241193
 105.3629257  83.2630540  31.9641193 105.6229257  82.1730540  33.8441193
 105.0029257  81.6230540  34.5341193 106.9029257  81.3330540  33.4341193
 107.4529257  81.0730540  34.3641193 107.5429257  81.9030540  32.7341193
 106.4129257  80.0230540  32.7641193 106.0329257  80.2630540  31.7541193
 105.6029257  79.5230540  33.3341193 107.6129257  79.0130540  32.5641193
 107.8229257  78.6430540  33.5941193 107.1429257  78.1630540  32.0441193
 108.9229257  79.4030540  31.8741193 109.7329257  78.7030540  32.1741193
 109.1829257  80.4230540  32.2441193 108.8829257  79.4930540  30.4441193
 109.8629257  79.3530540  30.1341193 108.2929257  78.7630540  29.9841193
 108.5129257  80.3830540  30.0741193 106.0929257  83.4130540  34.6141193
 105.7129257  83.6330540  35.7841193 106.9729257  84.2130540  33.9241193
 107.1129257  84.1930540  32.9441193 107.7629257  85.1830540  34.6941193
 107.3429257  85.2930540  35.6841193 109.3129257  84.8430540  34.7741193
 109.3429257  83.8630540  35.2941193 109.8229257  85.6030540  35.4141193
 110.0329257  84.5130540  33.4541193 110.2729257  83.3630540  33.1241193
 110.5429257  85.5330540  32.7741193 110.6029257  86.4330540  33.2141193
 111.1529257  85.4030540  31.9941193 107.5829257  86.4930540  34.1041193
 108.4829257  87.2830540  33.8041193 106.3229257  86.9130540  33.8041193
 105.6329257  86.2830540  34.1341193 105.8529257  88.1430540  33.2941193
 106.3529257  88.3030540  32.3541193 104.3429257  88.1230540  32.9541193
 104.0829257  89.1330540  32.5741193 103.8529257  87.9530540  33.9441193
 103.7829257  87.0230540  32.0141193 103.6229257  86.0530540  32.5341193
 104.5429257  86.7530540  31.2441193 102.6029257  87.5130540  31.1041193
 101.4729257  87.0430540  31.3841193 102.8229257  88.3530540  30.1641193
 106.2429257  89.3630540  34.1541193 106.2029257  89.3630540  35.3841193
 106.6729257  90.4630540  33.4341193 106.5929257  90.5430540  32.4441193
 107.1029257  91.7830540  33.8941193 107.1329257  91.7430540  34.9741193
 108.4129257  92.2730540  33.3441193 108.5429257  92.3230540  32.2441193
 108.7329257  93.6630540  33.9741193 109.7729257  93.9730540  33.7241193
 108.0529257  94.4130540  33.5241193 108.5729257  93.5430540  35.0641193
 109.4429257  91.3330540  33.9141193 109.3729257  90.2930540  33.5241193
 110.4829257  91.6530540  33.6841193 109.4029257  91.2230540  35.0241193
 106.0129257  92.7430540  33.4541193 105.4029257  92.5730540  32.4041193
 105.5829257  93.7230540  34.3541193 106.0029257  93.9230540  35.2441193
 104.3829257  94.4230540  34.1441193 103.9229257  94.3130540  33.1841193
 103.4029257  93.9630540  35.2541193 102.5429257  94.6530540  35.1341193
 103.8729257  94.0930540  36.2541193 102.7529257  92.6430540  34.9541193
 102.2929257  92.3830540  33.6841193 102.4129257  93.1230540  32.9041193
 101.6229257  91.1830540  33.4141193 101.3029257  90.9230540  32.4141193
 101.3929257  90.1830540  34.4241193 100.8529257  89.2730540  34.2141193
 102.7429257  91.6230540  35.9141193 103.2829257  91.8130540  36.8341193
 101.9629257  90.4530540  35.6341193 101.9429257  89.7230540  36.4241193
 104.6829257  95.9130540  34.2541193 105.5829257  96.4630540  34.8641193
 104.0129257  96.6330540  33.4141193 103.3429257  96.1630540  32.8441193
 104.3229257  98.0730540  33.2741193 104.5929257  98.4930540  34.2341193
 105.5629257  98.4130540  32.4841193 106.4229257  98.1230540  33.1241193
 105.5929257  99.5130540  32.3641193 105.6629257  97.6630540  31.1341193
 104.8529257  97.7930540  30.2041193 106.7029257  96.8530540  30.9541193
 107.4729257  96.7830540  31.5841193 106.8629257  96.5030540  30.0241193
 103.0229257  98.8230540  32.7041193 102.0829257  98.0330540  32.5041193
 102.9729257 100.1030540  32.3041193 103.7429257 100.7130540  32.4641193
 101.8329257 100.7430540  31.6641193 100.9029257 100.4730540  32.1341193
 102.0429257 102.2530540  31.5741193 101.2229257 102.6330540  30.9341193
 103.0529257 102.4930540  31.1841193 101.8529257 102.8530540  32.9841193
 101.4829257 102.1730540  33.9041193 102.1929257 104.1730540  33.1141193
 102.7729257 104.5930540  32.4041193 102.1929257 104.5230540  34.0541193
 101.4629257 100.1030540  30.3141193 100.3329257  99.9730540  29.9541193
 102.4829257  99.6730540  29.5441193 103.4229257  99.5930540  29.8741193
 102.3329257  99.2530540  28.1941193 101.5829257  99.8430540  27.7041193
 103.7029257  99.3630540  27.4141193 104.4529257  98.6730540  27.8541193
 104.1829257 100.3230540  27.6841193 103.6729257  99.2530540  25.8441193
 102.7729257 100.0130540  25.0641193 102.0529257 100.6730540  25.5241193
 102.7229257  99.8430540  23.7041193 101.9929257 100.4930540  23.2341193
 103.5229257  98.9430540  23.0441193 103.3729257  98.6430540  21.6941193
 104.2329257  98.3030540  21.4041193 104.4929257  98.2730540  25.1141193
 105.2329257  97.8230540  25.7541193 104.4529257  98.2030540  23.7441193
 105.1729257  97.5630540  23.2441193 101.7429257  97.8730540  28.0741193
 101.2929257  97.4130540  27.0141193 101.6729257  97.1230540  29.2341193
 102.0629257  97.4030540  30.1041193 100.9529257  95.8230540  29.3841193
 101.2929257  95.0730540  28.6841193 101.0329257  95.3430540  30.8241193
 100.7129257  96.1930540  31.4741193 102.3229257  94.9130540  31.1441193
 102.6729257  94.2430540  30.5441193 100.0829257  94.1530540  31.2341193
  99.0329257  94.4530540  31.0541193 100.2829257  93.2330540  30.6441193
 100.2529257  93.8830540  32.2941193  99.5429257  95.9930540  28.9541193
  99.0029257  95.2530540  28.1941193  98.8429257  97.0330540  29.3941193
  99.3529257  97.6330540  29.9941193  97.5229257  97.3230540  28.8941193
  97.0429257  96.3830540  28.6641193  96.8229257  98.1330540  30.0141193
  95.8429257  98.5230540  29.6641193  97.4429257  99.0430540  30.1741193
  96.6129257  97.3730540  31.2441193  95.5129257  96.5030540  31.3141193
  94.7429257  96.5830540  30.5541193  95.2029257  95.8530540  32.5041193
  94.3529257  95.1830540  32.4741193  96.0629257  95.9230540  33.6241193
  95.6929257  95.4230540  34.5041193  97.4729257  97.3830540  32.3641193
  98.3029257  98.0630540  32.4241193  97.1729257  96.7130540  33.6041193
  97.7929257  96.7530540  34.4841193  97.4829257  98.2130540  27.6141193
  97.8429257  99.4230540  27.7041193  97.2329257  97.5830540  26.4141193
  97.0129257  96.6130540  26.3641193  97.3629257  98.3230540  25.2041193
  97.1729257  99.3630540  25.4241193  98.7929257  98.3930540  24.7241193
  99.4429257  98.8530540  25.5041193  98.9629257  99.0930540  23.8841193
  99.4929257  97.0030540  24.6341193  98.8229257  96.4030540  23.9841193
  99.4929257  96.5530540  25.6541193 100.8429257  97.0230540  23.9441193
 101.6729257  97.4230540  24.5641193 101.0029257  97.6930540  23.0741193
 101.2529257  95.5830540  23.6041193 101.0429257  95.2730540  22.6741193
 101.7729257  94.7330540  24.4841193 102.0829257  95.0130540  25.7741193
 101.9429257  95.9430540  26.1141193 102.8329257  94.5130540  26.2141193
 102.0529257  93.5330540  24.0941193 102.0829257  93.4530540  23.0941193
 102.6229257  92.9230540  24.6441193  96.5129257  97.8230540  24.0741193
  96.4929257  98.4830540  23.0341193  95.8329257  96.6630540  24.1841193
  95.7229257  96.2130540  25.0641193  95.0129257  96.1630540  23.0741193
  95.4029257  96.0530540  22.0741193  94.7329257  95.1530540  23.3341193
  93.7429257  96.9230540  22.9141193  92.7429257  96.7330540  23.6141193
  93.6629257  97.7330540  21.8241193  94.4529257  97.8730540  21.2341193
  92.4329257  98.4730540  21.3741193  91.8529257  98.8630540  22.1941193
  92.9329257  99.6430540  20.4841193  92.0229257 100.0630540  20.0141193
  93.5829257  99.2230540  19.6841193  93.8329257 100.6630540  21.2241193
  94.6329257  99.9830540  21.5741193  94.3429257 101.7230540  20.2241193
  94.9429257 101.2230540  19.4341193  93.4529257 102.1330540  19.7141193
  94.9229257 102.5330540  20.7241193  93.0629257 101.4230540  22.3541193
  93.7729257 102.0730540  22.9141193  92.3429257 102.0630540  21.8041193
  92.5329257 100.7430540  23.0541193  91.4929257  97.7530540  20.4541193
  90.2829257  98.0530540  20.5041193  91.9729257  96.9130540  19.4741193
  92.9529257  96.7030540  19.4941193  91.0829257  96.3230540  18.4741193
  90.1329257  96.1730540  18.9441193  91.0429257  97.0630540  17.6841193
  91.5929257  95.0530540  17.8641193  92.7829257  94.7130540  17.8141193
  90.6329257  94.3530540  17.2241193  89.6629257  94.5930540  17.2941193
  91.0129257  93.0930540  16.6041193  92.0029257  93.2230540  16.1941193
  90.8829257  91.8530540  17.5241193  89.8629257  91.5130540  17.7941193
  91.3829257  92.0830540  18.4841193  91.5429257  90.6530540  16.8641193
  92.4229257  90.8230540  16.0441193  91.0829257  89.4330540  17.2441193
  90.4229257  89.4330540  17.9941193  91.3929257  88.5930540  16.7941193
  90.1629257  93.1030540  15.3441193  88.9829257  92.9130540  15.3241193
  90.7429257  93.4730540  14.1541193  91.6729257  93.8430540  14.2341193
  90.2129257  93.3230540  12.7741193  91.0029257  93.6130540  12.0941193
  89.7129257  91.8830540  12.5941193  89.3029257  91.6730540  11.5841193
  88.8029257  91.7330540  13.2141193  90.7129257  90.7730540  12.8941193
  91.3229257  91.1130540  13.7641193  91.4329257  90.7030540  12.0541193
  89.9729257  89.4830540  13.3441193  90.6729257  88.9430540  14.0141193
  89.0729257  89.7230540  13.9541193  89.5429257  88.6830540  12.1941193
  90.3929257  88.2530540  11.6241193  88.8929257  89.2630540  11.5041193
  88.8529257  87.4130540  12.5541193  88.6029257  86.8930540  11.6941193
  89.1729257  86.7330540  13.2641193  87.9529257  87.8130540  12.8941193
  89.0129257  94.2630540  12.4541193  88.2129257  93.9930540  11.6041193
  88.9029257  95.4730540  13.1241193  89.4829257  95.7930540  13.8741193
  87.8229257  96.4330540  12.8541193  88.3129257  97.3630540  12.6041193
  87.1729257  96.0730540  12.0741193  87.0429257  96.5030540  14.1341193
  86.3929257  97.5230540  14.3741193  87.0429257  95.4830540  14.9941193
  87.7029257  94.7730540  14.7841193  86.0529257  95.3630540  16.1241193
  85.3429257  96.1730540  16.0941193  85.0729257  94.1830540  16.0141193
  84.4829257  94.1530540  16.9541193  84.1329257  94.3930540  14.8641193
  84.6329257  94.4530540  13.8741193  83.2629257  93.7030540  14.8241193
  83.7429257  95.4230540  15.0141193  85.8629257  92.8530540  15.8841193
  86.3129257  92.5630540  16.8541193  85.0429257  92.1130540  15.7441193
  86.5829257  92.8030540  15.0341193  86.7429257  95.3630540  17.5141193
  87.9329257  95.0330540  17.6541193  86.0929257  95.8230540  18.6041193
  85.2029257  96.2630540  18.5541193  86.6129257  95.5530540  19.9241193
  87.4029257  96.2730540  20.0541193  85.5629257  95.8930540  21.0441193
  85.9929257  95.6530540  22.0441193  84.5229257  95.5330540  20.8941193
  85.3029257  97.3930540  21.2741193  84.9729257  97.7730540  20.2841193
  84.2329257  97.5330540  22.3041193  83.8829257  98.5630540  22.4941193
  83.3629257  96.9930540  21.8641193  84.5929257  97.0330540  23.2241193
  86.5229257  98.1330540  21.6641193  87.1229257  97.5530540  22.3841193
  87.1529257  98.4330540  20.7941193  86.3329257  99.1130540  22.1541193
  86.9829257  94.1130540  20.2241193  86.2629257  93.1630540  19.9341193
  88.1029257  93.9230540  20.9441193  88.9929257  95.0430540  21.4741193
  89.1629257  95.7530540  20.6341193  88.4129257  95.5730540  22.2641193
  88.7429257  92.6430540  21.3141193  88.8529257  92.0430540  20.4141193
  90.0229257  93.0030540  22.0341193  90.8729257  92.3330540  21.7641193
  89.9429257  92.7530540  23.1041193  90.3229257  94.4430540  21.8641193
  91.0729257  94.4730540  21.0441193  90.8329257  94.9430540  22.7141193
  87.7829257  91.8330540  22.2741193  87.6729257  90.6530540  22.2141193
  87.1029257  92.5630540  23.1641193  87.2029257  93.5530540  23.1641193
  86.4429257  91.9730540  24.3041193  86.8029257  90.9630540  24.4541193
  86.8029257  92.5730540  25.6541193  87.8929257  92.4330540  25.7941193
  86.2529257  92.1130540  26.5041193  86.5129257  94.0830540  25.7641193
  85.3429257  94.7730540  25.8541193  84.4029257  94.3130540  26.1141193
  85.5929257  96.1330540  25.7041193  85.0029257  96.8930540  25.8941193
  86.9529257  96.3730540  25.5241193  87.5329257  95.0730540  25.5241193
  88.9129257  95.0230540  25.4041193  89.3529257  94.0430540  25.3841193
  89.6129257  96.2030540  25.1441193  90.6729257  96.0030540  25.0441193
  87.6429257  97.5130540  25.2541193  87.0429257  98.4130540  25.2541193
  89.0229257  97.4430540  25.1041193  89.5729257  98.2730540  24.6841193
  84.8829257  91.8330540  24.1041193  84.0929257  91.3930540  24.9241193
  84.4329257  92.2530540  22.9241193  85.1229257  92.4930540  22.2441193
  83.0629257  92.4330540  22.5141193  83.0629257  92.8130540  21.5041193
  82.1929257  91.0930540  22.5641193  81.1529257  91.4330540  22.3641193
  82.3829257  90.6530540  23.5641193  82.4329257  90.1130540  21.3741193
  82.4929257  90.6230540  20.3841193  81.4929257  89.5330540  21.2741193
  83.6429257  89.2330540  21.5141193  83.6429257  88.4730540  20.7041193
  84.5029257  89.8930540  21.2641193  83.8229257  88.4730540  22.8441193
  83.5429257  89.0930540  23.7241193  84.8429257  88.0730540  22.9941193
  82.8529257  87.3530540  22.8141193  82.7429257  86.9530540  23.7741193
  81.9629257  87.6730540  22.3841193  83.2429257  86.7130540  22.0941193
  82.3229257  93.4930540  23.2941193  82.0529257  94.5830540  22.8041193
  81.9629257  93.1730540  24.5641193  82.3029257  92.3530540  25.0241193
  81.0829257  93.9730540  25.3841193  80.8529257  94.8630540  24.8241193
  79.8129257  93.1330540  25.5241193  79.9829257  92.1730540  26.0641193
  79.4629257  92.8130540  24.5141193  78.4329257  94.0430540  26.4241193
  78.5729257  93.4930540  27.6241193  81.7829257  94.2330540  26.7141193
  81.9329257  93.2930540  27.4941193  81.9829257  95.5530540  27.0541193
  81.7429257  96.3430540  26.4841193  82.1429257  95.9130540  28.4441193
  81.6729257  95.0830540  28.9541193  83.6229257  96.2530540  28.8941193
  83.9829257  97.1730540  28.3741193  84.3429257  95.5130540  28.4841193
  83.8329257  96.4730540  30.4041193  83.2329257  97.3530540  31.0441193
  84.5129257  95.5030540  31.0241193  84.8829257  94.7730540  30.4541193
  84.5829257  95.4730540  32.0141193  81.1629257  97.0630540  28.6741193
  81.0829257  98.0030540  27.8941193  80.2029257  96.7830540  29.5841193
  80.2229257  96.0230540  30.2241193  79.0329257  97.6730540  29.7541193
  78.8729257  98.0430540  28.7541193  77.8429257  96.9330540  30.3541193
  78.1129257  96.4630540  31.3241193  77.5529257  96.0830540  29.6941193
  76.6729257  97.7330540  30.4141193  76.6829257  98.2430540  31.2241193
  79.4029257  98.9030540  30.4841193  78.9429257  99.9230540  30.0841193
  80.2229257  98.7530540  31.5341193  80.4629257  97.8130540  31.7441193
  80.6529257  99.8530540  32.5241193  79.7829257 100.4330540  32.8041193
  81.3829257  99.2430540  33.7141193  82.2929257  98.6630540  33.4341193
  80.7429257  98.4630540  34.1741193  81.9029257 100.0630540  34.9241193
  82.7029257 100.7430540  34.5741193  80.7129257 100.9530540  35.4041193
  80.2329257 101.5330540  34.5841193  79.9529257 100.3030540  35.8941193
  81.1329257 101.7230540  36.0841193  82.3529257  99.2030540  35.9841193
  82.7029257  99.9130540  36.7541193  81.4429257  98.6130540  36.2541193
  83.1529257  98.4730540  35.7341193  81.5729257 100.8130540  31.8841193
  81.4929257 101.9830540  32.0841193  82.5729257 100.3330540  31.0241193
  82.7129257  99.3630540  30.8241193  83.3829257 101.1030540  30.2041193
  83.9529257 101.7730540  30.8241193  84.5029257 100.1630540  29.7241193
  84.1629257  99.3130540  29.0941193  85.0329257  99.7130540  30.5841193
  85.5329257 100.9230540  28.8241193  86.3029257 101.7330540  29.3441193
  85.6529257 100.5730540  27.6141193  82.6029257 101.8830540  29.1841193
  82.8029257 103.0730540  28.9541193  81.5929257 101.4130540  28.6141193
  81.4029257 100.4430540  28.7041193  80.5729257 102.1130540  27.8341193
  81.2229257 102.7230540  27.2141193  79.7429257 101.0730540  26.9341193
  79.2629257 100.5030540  27.7641193  80.3729257 100.2930540  26.4541193
  78.7129257 101.7430540  25.9841193  77.9629257 102.2030540  26.6541193
  78.1329257 100.9530540  25.4641193  79.4629257 102.8230540  24.6941193
  80.3629257 101.4730540  23.9941193  79.8929257 100.5030540  24.2641193
  80.3429257 101.5630540  22.8841193  81.3829257 101.5330540  24.4041193
  79.6429257 103.1030540  28.5341193  79.3129257 104.2230540  28.0841193
  79.2229257 102.7830540  29.7441193  79.2529257 101.8530540  30.0941193
  78.6229257 103.6730540  30.6241193  77.8029257 104.1230540  30.0941193
  77.9829257 102.9630540  31.8741193  78.7329257 102.3530540  32.4241193
  77.2229257 102.2230540  31.5541193  77.3929257 103.9130540  32.9141193
  76.8429257 104.7730540  32.4741193  78.1929257 104.4530540  33.4741193
  76.7229257 102.9830540  33.9141193  75.8729257 102.5830540  33.3341193
  77.4629257 102.2030540  34.2041193  76.3229257 103.7330540  35.1641193
  75.6029257 104.4630540  34.7241193  77.1529257 104.2130540  35.7241193
  75.5229257 103.0030540  36.1241193  75.9329257 102.0530540  36.2141193
  75.3129257 103.4430540  37.0441193  74.5729257 102.8630540  35.7141193
  79.4429257 104.8930540  31.0041193  79.0429257 106.0630540  30.8341193
  80.7429257 104.7330540  31.4541193  81.0329257 103.7730540  31.4941193
  81.8029257 105.6530540  31.6941193  81.5629257 106.3030540  32.5241193
  83.1129257 105.0030540  32.1541193  83.4129257 104.2730540  31.3641193
  83.0429257 104.3830540  33.0641193  84.2229257 105.9530540  32.5741193
  84.3929257 106.3330540  33.9241193  83.6229257 106.0430540  34.6241193
  85.2929257 107.3430540  34.3841193  85.3129257 107.6930540  35.4041193
  86.3529257 107.5830540  33.5041193  87.5029257 108.2130540  33.9041193
  88.2329257 107.9230540  33.3441193  85.2729257 106.3030540  31.7341193
  85.1829257 105.9230540  30.7241193  86.3229257 107.1430540  32.1841193
  87.1429257 107.3230540  31.5041193  82.0729257 106.5630540  30.5741193
  82.1029257 107.8030540  30.5941193  82.2329257 105.9230540  29.4141193
  82.1529257 104.9330540  29.3741193  82.4829257 106.5430540  28.1741193
  83.3529257 107.1730540  28.2841193  82.8629257 105.5730540  27.0941193
  82.0929257 104.7930540  26.9541193  83.7929257 105.0230540  27.3141193
  82.8529257 106.1930540  25.7141193  84.1129257 106.5530540  25.1041193
  85.0629257 106.3030540  25.5641193  84.0929257 107.0930540  23.8241193
  84.9829257 107.5430540  23.4041193  82.8729257 107.2130540  23.0941193
  82.9029257 107.6330540  22.1041193  81.6129257 106.3830540  24.9541193
  80.7029257 106.0330540  25.4241193  81.7429257 106.7830540  23.6041193
  80.8129257 106.8330540  23.0541193  81.3529257 107.4930540  27.7441193
  81.6129257 108.6830540  27.4541193  80.1229257 107.0030540  27.8741193
  80.0129257 106.0230540  28.0341193  78.9429257 107.9430540  27.6841193
  79.0629257 108.3630540  26.6941193  77.6029257 107.1330540  27.9241193
  77.5429257 106.6630540  28.9241193  77.6829257 106.2530540  27.2541193
  76.1029257 108.0930540  27.6741193  75.6529257 108.0930540  28.9241193
  79.0129257 109.0630540  28.6841193  78.7629257 110.2230540  28.3141193
  79.1929257 108.7330540  29.9541193  79.2229257 107.8130540  30.3341193
  79.0529257 109.6930540  30.9941193  78.0329257 110.0330540  31.0941193
  79.2029257 108.9430540  32.3441193  80.2129257 108.5130540  32.4741193
  79.1729257 109.5530540  33.2741193  78.5229257 108.0630540  32.4141193
  80.1129257 110.7830540  30.9541193  79.7429257 111.9030540  31.0841193
  81.3929257 110.4630540  30.7541193  81.6329257 109.5030540  30.6741193
  82.5229257 111.3630540  30.4141193  82.4129257 112.0830540  31.2141193
  83.9629257 110.6930540  30.3941193  83.8829257 109.9230540  29.5941193
  84.8929257 111.7930540  29.8541193  84.8329257 111.9330540  28.7541193
  84.7829257 112.7630540  30.3841193  85.9529257 111.5230540  30.0541193
  84.4029257 110.2130540  31.7941193  84.3129257 111.0630540  32.5041193
  83.7029257 109.4430540  32.1941193  85.4629257 109.8630540  31.8341193
  82.2729257 112.1030540  29.1541193  82.5429257 113.3030540  29.1541193
  81.8229257 111.4730540  28.0141193  81.7029257 110.4830540  27.9141193
  81.6829257 112.1730540  26.8241193  82.5029257 112.8730540  26.7741193
  81.9429257 111.3530540  25.5241193  81.9429257 112.0430540  24.6541193
  81.0529257 110.2930540  25.3141193  81.1029257 109.6830540  26.0441193
  83.3829257 110.7830540  25.5441193  83.4429257 109.9730540  24.7841193
  84.1429257 111.5530540  25.2641193  83.6329257 110.4130540  26.5541193
  80.4329257 113.0730540  26.6341193  80.4029257 113.8430540  25.7041193
  79.4629257 112.9530540  27.5341193  79.3529257 112.1130540  28.0741193
  78.2629257 113.7030540  27.4241193  78.2129257 114.0930540  26.4241193
  77.0429257 112.7830540  27.6641193  76.9329257 112.5230540  28.7341193
  77.0729257 111.5730540  26.9341193  77.7629257 111.0730540  27.3641193
  75.7529257 113.4430540  27.2241193  74.7929257 112.9030540  27.3741193
  75.6029257 114.4530540  27.6841193  75.9329257 113.6730540  26.1541193
  78.2829257 114.8530540  28.4741193  77.6429257 115.8830540  28.2541193
  79.1029257 114.6630540  29.5541193  79.7129257 113.9030540  29.7441193
  79.1929257 115.5430540  30.6741193  78.1829257 115.6130540  31.0441193
  79.9629257 114.9530540  31.8241193  81.0229257 114.8730540  31.5141193
  79.5429257 113.9430540  32.0541193  79.9529257 115.7630540  33.0541193
  78.8329257 115.7530540  33.8441193  78.0129257 115.0630540  33.7141193
  78.6629257 116.6830540  34.8841193  77.7829257 116.8430540  35.4841193
  79.6229257 117.6530540  35.1841193  79.4729257 118.6630540  36.1041193
  78.6229257 119.0630540  35.8941193  80.9429257 116.6930540  33.3641193
  81.7629257 116.8830540  32.6941193  80.8229257 117.6130540  34.4341193
  81.5429257 118.3830540  34.6441193  79.5429257 116.9830540  30.3741193
  80.6729257 117.3030540  29.9441193  78.6829257 117.9630540  30.5441193
  77.7629257 117.7430540  30.8741193  78.9829257 119.3430540  30.3641193
  80.0529257 119.4630540  30.3841193  78.2929257 120.0230540  29.1741193
  78.7729257 121.0130540  29.0141193  78.5229257 119.4030540  27.7641193
  78.1929257 118.3430540  27.7541193  77.9229257 119.8330540  26.9341193
  79.5829257 119.4330540  27.4341193  76.7729257 120.1230540  29.2841193
  76.5429257 120.7330540  30.1841193  76.3229257 120.5030540  28.3441193
  76.3129257 119.1230540  29.4441193  78.6329257 119.9830540  31.7141193
  77.8329257 119.4530540  32.4341193  79.2729257 121.1130540  31.9241193
  80.0129257 121.4830540  31.3641193  79.0429257 121.9030540  33.0941193
  78.1229257 121.6230540  33.5941193  80.2129257 121.8130540  34.0841193
  81.1829257 122.2430540  33.7541193  80.4629257 120.7430540  34.2541193
  79.8929257 122.5030540  35.4441193  78.8529257 123.0630540  35.6041193
  80.7929257 122.2730540  36.4541193  81.6829257 121.8430540  36.3141193
  80.4729257 122.5430540  37.3641193  78.8129257 123.3830540  32.6241193
  79.7429257 124.0730540  32.2141193  77.6029257 123.9130540  32.5841193
  76.8929257 123.4130540  33.0741193  77.2829257 125.1730540  31.8741193
  77.9029257 125.1430540  30.9941193  75.7529257 125.5030540  31.5441193
  75.7029257 126.5330540  31.1341193  75.0929257 125.4030540  32.4341193
  75.2429257 124.6830540  30.3441193  75.2029257 123.5830540  30.4341193
  76.1529257 124.7230540  29.7041193  74.1729257 125.2830540  29.5041193
  73.1129257 125.6530540  30.1441193  74.3029257 125.6130540  28.3241193
  77.8829257 126.3130540  32.5441193  78.4729257 127.1530540  31.9141193
  77.8429257 126.4530540  33.8941193  77.3129257 125.8430540  34.4741193
  78.3829257 127.5330540  34.6641193  78.0129257 128.5130540  34.4041193
  77.8129257 127.4830540  36.1441193  76.7429257 127.7630540  36.1741193
  78.4529257 128.0830540  36.8341193  77.8129257 126.1430540  36.6641193
  76.8729257 125.9930540  36.7241193  79.9129257 127.6030540  34.7441193
  80.4729257 128.6330540  35.0841193  80.6929257 126.5330540  34.3741193
  80.3229257 125.6130540  34.3541193  82.1229257 126.7530540  34.0641193
  82.5029257 127.4830540  34.7741193  82.9129257 125.5030540  34.4441193
  83.9429257 125.5130540  34.0041193  82.4029257 124.5930540  34.0441193
  83.0729257 125.2030540  35.8941193  82.0629257 125.0330540  36.3341193
  83.5429257 126.0630540  36.4141193  83.7429257 123.8530540  36.1341193
  83.1729257 123.0630540  35.6041193  84.7329257 123.8430540  35.6141193
  83.8429257 123.5230540  37.6041193  82.8329257 123.4630540  38.0741193
  84.4629257 124.3030540  38.1041193  84.5029257 122.2030540  37.7041193
  83.8829257 121.3830540  37.8541193  85.0029257 122.1430540  36.7941193
  85.2529257 122.2530540  38.4241193  82.5329257 127.2130540  32.6341193
  83.7429257 127.4730540  32.3941193  81.5429257 127.2730540  31.7041193
  80.6229257 126.8930540  31.8141193  81.9429257 127.5630540  30.2841193
  82.7929257 126.9430540  30.0541193  80.6729257 127.1830540  29.3641193
  79.7129257 127.6730540  29.6441193  80.6129257 126.0730540  29.4641193
  80.8629257 127.4430540  27.9341193  81.9429257 126.8930540  27.3041193
  82.6429257 126.2830540  27.8441193  82.1529257 127.2130540  25.9941193
  83.0029257 126.8930540  25.4041193  81.3929257 128.1330540  25.2741193
  81.6929257 128.3830540  23.9341193  82.6329257 128.3030540  23.7841193
  80.0529257 128.4230540  27.2741193  79.2429257 128.8830540  27.8141193
  80.2629257 128.7330540  25.9441193  79.6129257   5.7430540  25.3241193
  82.5029257 128.9230540  30.0441193  83.4629257 129.0130540  29.2741193
  82.0729257   6.3930540  30.8241193  81.2929257   6.2030540  31.4141193
  82.3529257   7.8030540  30.5141193  81.8529257   8.0030540  29.5741193
  81.7929257   8.7230540  31.6841193  82.1429257   9.7830540  31.6441193
  82.1729257   8.3630540  32.6641193  80.2329257   8.6930540  31.7441193
  79.8829257   9.5530540  32.3541193  79.8629257   7.8030540  32.3041193
  79.5629257   8.6730540  30.4141193  78.8729257   7.7130540  30.0941193
  79.6829257   9.6530540  29.6341193  83.9129257   8.0330540  30.4741193
  84.3529257   8.7830540  29.5741193  84.6029257   7.3730540  31.4541193
  84.1329257   6.8830540  32.1741193  86.0829257   7.3030540  31.4341193
  86.3929257   8.3330540  31.4441193  86.4429257   6.5430540  32.7241193
  85.9529257 129.1330540  32.6641193  86.0329257   7.0530540  33.6241193
  88.0329257   6.4430540  33.0141193  88.4629257   5.8630540  32.1741193
  88.3429257   5.9830540  33.9741193  88.5929257   7.8430540  33.1341193
  89.6629257   7.6830540  32.8741193  88.1529257   8.4930540  32.3541193
  88.3329257   8.4230540  34.5641193  89.1229257   8.1530540  35.3041193
  87.2929257   8.2630540  34.9141193  88.3929257   9.8730540  34.4441193
  89.2229257  10.1230540  33.8741193  87.6629257  10.2730540  33.8241193
  88.3029257  10.3730540  35.3541193  86.7329257   6.6330540  30.2241193
  87.5929257   7.2130540  29.5641193  86.2229257 129.0030540  29.7941193
  85.3929257 128.5830540  30.1441193  86.7929257 128.3330540  28.6241193
  87.8729257 128.2330540  28.6741193  86.0429257 127.0130540  28.3941193
  86.3329257 126.4430540  27.4841193  84.9729257 127.2730540  28.2641193
  86.1829257 126.0730540  29.5841193  85.8329257 126.4830540  30.5541193
  85.2929257 124.8230540  29.2841193  84.2529257 125.1730540  29.4541193
  85.4029257 124.4830540  28.2341193  85.4829257 124.0530540  30.0541193
  87.6229257 125.6030540  29.8841193  87.6729257 124.5730540  30.2941193
  88.2229257 125.6830540  28.9541193  88.0429257 126.4430540  30.4741193
  86.5829257 129.1030540  27.3341193  87.4229257   5.6430540  26.5341193
  85.3729257   6.0730540  27.2641193  84.6529257   5.6330540  27.8041193
  84.9929257   7.2430540  26.4541193  84.8029257   6.8330540  25.4641193
  83.5329257   7.6730540  26.7041193  83.4029257   7.8730540  27.7941193
  82.8329257   6.8630540  26.4141193  83.0229257   8.9530540  25.9141193
  83.4829257   8.8430540  24.9041193  83.5229257   9.7730540  26.4641193
  81.5229257   9.2130540  25.9641193  81.1229257   8.3230540  25.4441193
  81.2129257   9.1030540  27.0341193  81.0829257  10.4930540  25.3441193
  80.0129257  10.4030540  25.0641193  81.6629257  10.4930540  24.3941193
  81.3829257  11.7830540  26.0241193  80.8629257  11.7930540  26.9241193
  82.4129257  11.8330540  26.0941193  81.1229257  12.6430540  25.4941193
  86.0229257   8.3930540  26.2941193  86.7129257   8.5230540  25.3541193
  86.2129257   9.2030540  27.4041193  85.5829257   9.1430540  28.1841193
  87.2129257  10.3230540  27.5041193  86.8329257  10.9930540  26.7441193
  87.1829257  11.0230540  28.8641193  87.5329257  10.2530540  29.5841193
  86.1129257  11.2230540  29.0441193  88.0429257  12.2030540  28.9041193
  88.1229257  13.1030540  27.8841193  87.5829257  13.0830540  26.9541193
  88.7029257  14.3530540  27.9541193  88.6529257  15.1330540  27.2041193
  89.3829257  14.6530540  29.1041193  90.0629257  15.8930540  29.3141193
  90.4229257  15.8130540  30.1941193  88.7629257  12.4930540  30.0841193
  88.7529257  11.7330540  30.8541193  89.5129257  13.7130540  30.1941193
  90.0429257  13.9730540  31.0941193  88.6329257   9.9030540  27.0341193
  89.2929257  10.6330540  26.2641193  89.1329257   8.7530540  27.4841193
  88.5929257   8.2530540  28.1641193  90.4029257   8.1630540  27.1341193
  91.2029257   8.8130540  27.4541193  90.4629257   6.7530540  27.8841193
  89.6629257   6.0530540  27.5641193  90.3929257   6.8730540  28.9841193
  91.7329257   6.0830540  27.5741193  92.5729257   6.8030540  27.5741193
  91.8229257 129.1430540  26.5941193  92.0029257 128.5230540  28.5441193
  93.0129257 128.1530540  28.2641193  92.1629257 128.8630540  29.5841193
  91.1029257 127.3830540  28.3941193  91.2129257 126.8730540  27.4141193
  90.0229257 127.6430540  28.4341193  91.4329257 126.2930540  29.4341193
  92.4729257 126.2530540  29.3941193  91.2129257 126.6230540  30.3941193
  91.0329257 125.3730540  29.1541193  90.5629257   7.9230540  25.5941193
  91.6029257   8.2330540  25.0141193  89.5429257   7.4130540  24.9141193
  88.7829257   7.0230540  25.4141193  89.5329257   7.3130540  23.4141193
  90.4629257   6.8930540  23.0841193  88.3929257   6.3530540  23.1541193
  88.4129257   6.2930540  22.0441193  87.4329257   6.7530540  23.5341193
  88.5729257 128.4630540  23.6541193  88.7929257 128.4030540  24.7441193
  89.2829257 127.8930540  23.0141193  87.2329257 127.6930540  23.4841193
  87.0129257 127.4130540  22.4341193  86.3429257 128.2230540  23.8841193
  87.2429257 126.4930540  24.3241193  87.8829257 126.4230540  25.0841193
  86.2729257 125.6230540  24.4541193  85.1929257 125.5530540  23.7241193
  85.1129257 126.2130540  22.9741193  84.5029257 124.8330540  23.8441193
  86.3629257 124.7330540  25.4041193  86.9829257 124.9230540  26.1641193
  85.5729257 124.1430540  25.5541193  89.2929257   8.5430540  22.6841193
  89.8529257   8.8230540  21.5941193  88.4629257   9.3430540  23.2441193
  87.9429257   9.1530540  24.0741193  88.1129257  10.6230540  22.6741193
  87.8829257  10.6030540  21.6141193  86.8429257  11.2030540  23.3641193
  86.6729257  12.2730540  23.1241193  87.1129257  11.1230540  24.4341193
  85.3429257  10.2230540  23.1341193  84.8629257  10.8930540  22.0941193
  89.2329257  11.6330540  22.8341193  89.2629257  12.6030540  22.0941193
  90.1629257  11.4230540  23.8041193  90.0229257  10.7530540  24.5341193
  91.3629257  12.2330540  23.7141193  91.1029257  13.2730540  23.5441193
  92.0629257  12.2230540  25.0241193  93.1129257  12.5530540  24.8741193
  92.1029257  11.2030540  25.4641193  91.4429257  13.0930540  26.1241193
  90.4229257  12.7730540  26.4241193  91.3629257  14.0530540  25.5641193
  92.3829257  13.2830540  27.4041193  93.4229257  13.5930540  27.1741193
  91.9929257  14.1530540  27.9941193  92.2529257  12.1030540  28.4041193
  92.6329257  11.1830540  27.9241193  91.1929257  12.0530540  28.7541193
  93.0529257  12.4730540  29.5641193  92.6629257  13.2730540  30.0941193
  93.2529257  11.6330540  30.1441193  93.9629257  12.8630540  29.2441193
  92.3529257  11.8330540  22.6241193  93.0529257  12.5830540  21.9941193
  92.4729257  10.5830540  22.4041193  91.8829257   9.9530540  22.9141193
  93.2629257   9.9630540  21.4241193  94.2329257  10.4030540  21.5841193
  93.2829257   8.4830540  21.7841193  92.3229257   7.9930540  21.5241193
  93.4829257   8.3730540  22.8741193  94.3829257   7.6530540  21.0741193
  95.7729257   7.7730540  21.3041193  96.1729257   8.5530540  21.9441193
  96.6429257   7.0430540  20.4941193  97.7129257   7.1630540  20.5141193
  96.1929257   5.9530540  19.6741193  97.0729257 128.8730540  18.7741193
  96.5029257 128.4130540  18.1641193  93.9729257   6.5930540  20.2841193
  92.9029257   6.4830540  20.1941193  94.8329257   5.7930540  19.5641193
  94.4029257 128.7130540  18.8241193  92.8029257  10.1930540  19.9941193
  93.6829257  10.2930540  19.1541193  91.4829257  10.3930540  19.7141193
  90.8029257  10.3030540  20.4441193  90.9329257  10.5930540  18.3841193
  91.6229257  10.6530540  17.5541193  89.8829257   9.4130540  18.1941193
  89.3429257   9.5430540  17.2341193  89.1429257   9.5230540  19.0041193
  90.4729257   7.9830540  18.0241193  91.0329257   7.7630540  18.9541193
  89.4029257   6.9430540  17.8341193  88.6129257   6.9530540  18.6241193
  88.8129257   7.0730540  16.9041193  89.9429257   5.9730540  17.7841193
  91.4729257   7.9230540  16.9041193  91.8829257   6.8930540  16.9041193
  91.0029257   8.1030540  15.9141193  92.3229257   8.6330540  17.0541193
  90.0829257  11.8930540  18.1641193  89.7329257  12.1030540  17.0041193
  89.8129257  12.7430540  19.1941193  89.9729257  12.4130540  20.1241193
  88.8829257  13.9330540  19.1641193  88.8829257  14.2530540  20.1941193
  89.5929257  15.0630540  18.4041193  88.9529257  15.9630540  18.4741193
  89.7129257  14.7030540  17.3641193  91.0029257  15.4030540  18.8441193
  91.1829257  15.9130540  19.9141193  92.0829257  15.0330540  18.1841193
  91.9529257  14.6030540  17.2941193  93.0129257  15.3130540  18.4341193
  87.5029257  13.5430540  18.8241193  87.1029257  13.7930540  17.6641193
  86.7429257  12.9430540  19.7941193  87.0229257  13.0430540  20.7441193
  85.4629257  12.3230540  19.4841193  85.0029257  12.7730540  18.6141193
  85.5529257  10.8030540  19.2241193  84.5829257  10.2730540  19.2841193
  86.2729257  10.2730540  19.8741193  86.1629257  10.4630540  17.8941193
  87.2029257  10.8330540  17.8141193  85.5829257  11.1430540  17.2441193
  85.8829257   9.0630540  17.3941193  86.4929257   8.9830540  16.4641193
  86.3529257   8.3030540  18.0541193  84.4629257   8.8130540  17.2041193
  84.0229257   9.6330540  16.6041193  83.8429257   8.9130540  18.1241193
  84.1729257   7.5130540  16.6241193  85.0129257   6.9030540  16.5941193
  83.5129257   6.9630540  17.2041193  83.9829257   7.5230540  15.6041193
  84.4929257  12.5030540  20.5941193  84.8229257  13.0130540  21.6541193
  83.2029257  12.1630540  20.3941193  82.9029257  11.6430540  19.5841193
  82.0329257  12.3830540  21.2941193  82.4029257  12.6430540  22.2741193
  81.1529257  13.5230540  20.7341193  80.3929257  13.7030540  21.5241193
  80.6029257  13.1030540  19.8541193  81.7929257  14.8730540  20.4541193
  80.9229257  15.5530540  20.2841193  82.4529257  14.8130540  19.5641193
  82.6529257  15.4030540  21.5141193  83.6029257  16.2030540  21.2741193
  82.1929257  15.2730540  22.6841193  81.2129257  11.1030540  21.5441193
  81.7329257  10.0430540  21.7941193  79.8629257  11.1030540  21.4441193
  79.4429257  11.9330540  21.0841193  78.7929257  10.2330540  22.0141193
  79.2129257   9.9330540  22.9641193  77.4829257  10.9830540  22.3641193
  76.7429257  10.2430540  22.7441193  76.9729257  11.6830540  21.2541193
  76.0129257  11.6530540  21.3541193  77.7829257  11.9930540  23.4541193
  76.8329257  12.5230540  23.7141193  78.1729257  11.5830540  24.4141193
  78.6229257  12.6430540  23.1441193  78.3629257   8.8630540  21.4141193
  78.5629257   8.5530540  20.2241193  77.6729257   7.9530540  22.2041193
  77.4829257   8.1630540  23.1641193  77.0329257   6.7730540  21.6641193
  77.7329257   6.3430540  20.9541193  75.7329257   7.2030540  20.9941193
  76.1629257   7.9530540  20.2941193  75.3529257   6.3930540  20.3341193
  74.6329257   7.8230540  21.9241193  75.1129257   8.6830540  22.4441193
  74.2529257   7.1530540  22.7241193  73.4329257   8.2330540  21.0041193
  72.7929257   8.9330540  21.5741193  73.8529257   8.6830540  20.0741193
  72.4329257   7.0830540  20.6741193  71.8829257   6.7030540  21.5541193
  72.9429257   6.1930540  20.2541193  71.5829257   7.4630540  19.5841193
  70.9729257   6.6430540  19.4041193  70.9229257   8.2030540  19.9041193
  72.0229257   7.8830540  18.7441193  76.7929257   5.7930540  22.8041193
  77.4229257   5.8730540  23.8741193  75.8529257 128.4430540  22.5641193
  75.5129257 128.4230540  21.6241193  75.4229257 127.3530540  23.4341193
  75.2729257 127.7730540  24.4241193  74.0429257 126.7830540  22.8241193
  74.1629257 125.8130540  22.2941193  73.6729257 127.5730540  22.1441193
  72.9229257 126.6330540  23.9041193  72.0029257 126.2330540  23.4141193
  72.7729257 127.6630540  24.3041193  73.1229257 125.7130540  25.0441193
  73.4229257 124.6730540  24.7941193  73.9829257 125.9930540  25.6941193
  71.8929257 125.5730540  25.9641193  70.9829257 125.2030540  25.4341193
  71.7029257 126.5730540  26.4141193  72.0929257 124.6330540  27.0741193
  71.2929257 124.7430540  27.7341193  72.3529257 123.6930540  26.7241193
  72.9329257 124.9430540  27.6041193  76.4329257 126.1630540  23.5941193
  77.5829257 126.1530540  23.0341193  76.1429257 125.1430540  24.3841193
  75.3429257 125.2030540  24.9741193  77.1229257 124.2130540  24.8341193
  77.9929257 124.3730540  24.2141193  77.2229257 124.4330540  26.3741193
  76.5529257 123.7330540  26.9141193  77.0829257 125.4930540  26.6941193
  78.5629257 123.9730540  26.9241193  78.6129257 122.8930540  26.6541193
  79.7229257 124.7930540  26.2541193  80.5729257 124.7830540  26.9641193
  79.9029257 124.3030540  25.2641193  79.4429257 125.8530540  26.1141193
  78.6729257 124.0930540  28.4441193  79.6829257 123.8130540  28.7841193
  78.5429257 125.1430540  28.8041193  77.9429257 123.3730540  28.8841193
  76.8229257 122.6830540  24.6341193  75.8029257 122.1330540  25.0541193
  77.7729257 122.0030540  23.9941193  78.6029257 122.4430540  23.6541193
  77.7529257 120.5330540  23.9841193  77.3029257 120.1630540  24.8941193
  77.0429257 119.9830540  22.7241193  77.8029257 119.8030540  21.9241193
  76.3429257 120.7830540  22.4141193  76.3329257 118.6830540  23.0041193
  75.8429257 118.6430540  24.0041193  77.0329257 117.8230540  22.9441193
  75.2729257 118.4030540  21.8841193  75.6529257 118.3330540  20.6941193
  73.9829257 118.3230540  22.3441193  73.7929257 118.5930540  23.2841193
  73.3229257 117.8930540  21.7241193  79.2329257 120.0430540  24.0141193
  80.1729257 120.8730540  23.8941193  79.5629257 118.7430540  24.2841193
  78.8729257 118.1030540  24.6141193  80.8629257 118.1230540  23.9941193
  81.6429257 118.8730540  24.0341193  81.0929257 116.8130540  24.8341193
  82.0329257 116.2530540  24.6141193  80.1429257 116.2430540  24.7441193
  81.3529257 117.3530540  26.2641193  81.5929257 118.5430540  26.5241193
  81.1729257 116.4730540  27.2741193  80.6129257 115.6730540  27.0741193
  81.3629257 116.7530540  28.2141193  80.9729257 117.7430540  22.5541193
  79.9729257 117.6230540  21.8741193  82.2229257 117.6930540  22.0741193
  82.9129257 118.0530540  22.7041193  82.6529257 117.2030540  20.8241193
  81.8029257 116.8530540  20.2541193  83.5029257 118.2530540  20.1041193
  84.3729257 118.4330540  20.7741193  84.0829257 117.8130540  18.7541193
  84.5129257 116.7930540  18.8141193  83.2729257 117.8630540  18.0041193
  84.8229257 118.5030540  18.2941193  82.7729257 119.6130540  19.9841193
  81.9729257 119.7030540  19.2241193  82.3829257 119.9830540  20.9541193
  83.4929257 120.3930540  19.6441193  83.5129257 115.9930540  20.9541193
  84.4029257 115.8730540  21.8341193  83.1929257 115.0430540  20.1241193
  82.5229257 115.1930540  19.4041193  83.8929257 113.7430540  20.0341193
  84.6429257 113.7330540  20.8141193  82.9529257 112.5930540  20.4241193
  83.4429257 111.6030540  20.3741193  82.7129257 112.7630540  21.9541193
  81.9429257 112.0430540  22.3141193  83.6229257 112.5430540  22.5541193
  82.3329257 113.7330540  22.3441193  81.7029257 112.5230540  19.5541193
  81.0429257 113.3630540  19.8441193  82.0129257 112.5530540  18.4941193
  81.1729257 111.5630540  19.7241193  84.5829257 113.6030540  18.6441193
  84.0229257 113.8930540  17.6041193  85.8529257 113.1830540  18.6541193
  86.3229257 112.8630540  19.4741193  86.7229257 113.1330540  17.5141193
  86.2629257 113.4630540  16.5941193  87.9529257 114.0130540  17.7541193
  88.3129257 113.7430540  18.7741193  89.0429257 113.8430540  16.6841193
  89.7229257 114.7230540  16.7741193  89.5629257 112.8730540  16.5341193
  88.5329257 113.9630540  15.7041193  87.3629257 115.4130540  17.9441193
  86.4929257 115.5730540  17.2841193  87.0529257 115.5930540  18.9941193
  88.2029257 116.1130540  17.7341193  87.1829257 111.6930540  17.2041193
  87.8429257 111.0130540  18.0541193  86.8729257 111.1830540  15.9741193
  86.4129257 111.6230540  15.2141193  87.1129257 109.7330540  15.7141193
  87.9329257 109.4130540  16.3341193  85.9129257 108.8730540  16.0741193
  85.6029257 109.3130540  17.0441193  86.3329257 107.8730540  16.3141193
  84.7429257 108.8830540  15.0741193  85.2129257 108.7730540  14.0741193
  84.1829257 109.8430540  15.0741193  83.4829257 107.5230540  15.2841193
  82.3229257 108.3430540  16.3241193  82.2529257 109.4330540  16.1241193
  81.2829257 108.0530540  16.0541193  82.4429257 108.2430540  17.4241193
  87.5329257 109.6530540  14.2841193  87.6129257 110.5930540  13.4941193
  88.1329257 108.5330540  13.9141193  88.1429257 107.8130540  14.6141193
  88.5029257 108.1330540  12.5541193  88.8229257 108.9530540  11.9241193
  89.3129257 107.4330540  12.7041193  87.3529257 107.4330540  11.9241193
  86.4229257 106.9530540  12.5041193  87.4129257 107.2630540  10.5741193
  88.3129257 107.4730540  10.1841193  86.5129257 106.5830540   9.6941193
  85.5929257 107.1230540   9.5441193  87.1429257 106.5430540   8.2641193
  88.1829257 106.1530540   8.2841193  87.2229257 107.5930540   7.9341193
  86.2329257 105.8330540   7.1641193  86.2529257 106.4330540   6.2341193
  85.2029257 105.8430540   7.5641193  86.5529257 104.2930540   7.0141193
  85.8029257 103.8030540   6.3541193  86.5229257 103.8030540   8.0141193
  87.9529257 104.1230540   6.4641193  88.6029257 104.8730540   6.5641193
  88.4629257 102.9130540   6.3041193  87.7629257 101.8230540   6.2341193
  86.8129257 101.7930540   6.5641193  88.1829257 100.9230540   6.0941193
  89.7329257 102.8230540   5.9741193  90.3029257 103.6130540   5.7541193
  90.0229257 101.8930540   5.7441193  86.2729257 105.1430540  10.1441193
  85.1129257 104.6730540  10.1441193  87.3029257 104.3830540  10.6141193
  88.2529257 104.6530540  10.4641193  87.1929257 102.9930540  11.0941193
  86.5329257 102.4730540  10.4141193  88.5429257 102.2730540  11.2441193
  89.2429257 102.8830540  11.8441193  89.1629257 102.1630540   9.9541193
  89.4529257 103.0530540   9.7441193  88.4129257 100.8730540  11.7141193
  89.4029257 100.4030540  11.8941193  87.9229257 100.8430540  12.7141193
  87.8329257 100.4530540  10.8741193  86.3129257 102.8130540  12.3441193
  85.4629257 101.9530540  12.3841193  86.4429257 103.7530540  13.2741193
  86.9029257 104.5830540  12.9841193  85.7029257 103.7730540  14.5541193
  85.8729257 102.7930540  14.9641193  86.0029257 105.0230540  15.5041193
  85.3129257 105.1030540  16.3641193  86.0829257 105.9030540  14.8241193
  87.3029257 104.8730540  16.0441193  87.3229257 104.1330540  16.6541193
  84.2029257 103.7830540  14.2541193  83.4029257 103.0530540  14.7641193
  83.7429257 104.7430540  13.3641193  84.4129257 105.4130540  13.0541193
  82.3629257 104.9130540  12.8741193  81.7529257 105.0630540  13.7541193
  82.4029257 106.2130540  12.0341193  83.0829257 106.0730540  11.1741193
  82.7929257 107.0330540  12.6741193  81.0429257 106.5430540  11.4041193
  80.4729257 106.0230540  10.2641193  81.0429257 105.4030540   9.5841193
  79.2829257 106.7230540   9.9941193  78.6229257 106.6930540   9.2741193
  79.0229257 107.5030540  11.0541193  80.1329257 107.4430540  11.9241193
  80.0329257 108.1830540  13.1241193  80.7629257 108.1430540  13.9141193
  78.9029257 108.9030540  13.3641193  78.7629257 109.5130540  14.2441193
  77.8929257 108.3030540  11.3541193  76.9729257 108.1730540  10.8041193
  77.7929257 108.9130540  12.5641193  76.9229257 109.4430540  12.9141193
  81.8929257 103.7330540  12.0941193  80.7429257 103.2930540  12.2541193
  82.7529257 103.1430540  11.2541193  83.6029257 103.5430540  10.9141193
  82.3229257 101.9130540  10.6541193  81.3829257 102.1230540  10.1541193
  83.2529257 101.5030540   9.4241193  82.9729257 100.4930540   9.0441193
  84.2829257 101.7130540   9.7841193  83.0129257 102.5130540   8.1741193
  83.4029257 103.4730540   8.5641193  81.9429257 102.7230540   7.9541193
  83.7429257 102.1130540   6.9241193  84.9329257 101.7630540   6.8941193
  83.1029257 102.0930540   5.8941193  81.9429257 100.8130540  11.6641193
  81.0429257 100.0830540  11.4441193  82.5929257 100.7430540  12.8341193
  83.3429257 101.3730540  13.0141193  82.3329257  99.6930540  13.7541193
  81.9129257  98.8330540  13.2541193  83.6729257  99.1530540  14.3541193
  84.3229257  98.7930540  13.5341193  83.4229257  98.3230540  15.0541193
  84.3429257 100.1030540  15.1641193  83.9429257 100.9530540  14.9641193
  81.3529257  99.9030540  14.8441193  80.9029257  98.9730540  15.4441193
  80.9629257 101.1930540  15.1141193  81.3329257 102.0330540  14.7141193
  79.9829257 101.5330540  16.1141193  80.3329257 100.9330540  16.9441193
  79.8129257 102.9630540  16.5841193  79.5429257 103.6630540  15.7641193
  78.8129257 103.2030540  17.7541193  78.7429257 104.2930540  17.9441193
  77.8029257 102.8930540  17.4041193  79.0429257 102.6130540  18.6641193
  81.1729257 103.5030540  17.0441193  81.9929257 102.9130540  16.5841193
  81.2429257 103.3130540  18.1441193  81.4129257 105.0030540  16.7741193
  81.1029257 105.2430540  15.7441193  80.6829257 105.4930540  17.4441193
  82.4629257 105.2930540  17.0141193  78.5929257 101.0430540  15.5841193
  78.3729257 101.2230540  14.4241193  77.7129257 100.3130540  16.3241193
  78.0229257  99.8430540  17.6141193  78.9429257  99.2330540  17.5241193
  78.2629257 100.6530540  18.3341193  76.2529257 100.0730540  16.0141193
  76.1929257  99.2730540  15.2841193  75.6129257  99.6330540  17.3541193
  74.6729257  99.0430540  17.2941193  75.4129257 100.5130540  17.9941193
  76.7829257  98.9530540  17.9541193  76.8129257  97.9330540  17.5141193
  76.7329257  98.8430540  19.0541193  75.4829257 101.3130540  15.3441193
  75.7129257 102.4530540  15.7541193  74.7229257 101.0630540  14.2341193
  74.5829257 100.1230540  13.9441193  73.8529257 102.0530540  13.4941193
  74.4729257 102.8530540  13.1241193  73.2429257 101.4230540  12.1941193
  72.5229257 100.6930540  12.6141193  74.0829257 100.9330540  11.6441193
  72.4429257 102.3730540  11.3041193  71.6629257 102.9830540  11.8041193
  71.9129257 101.7030540  10.5941193  73.4529257 103.2130540  10.4241193
  74.1929257 103.7630540  11.0241193  74.0229257 102.5130540   9.7741193
  72.6229257 104.1530540   9.4841193  72.1429257 104.8830540  10.1641193
  71.8529257 103.5430540   8.9641193  73.4729257 104.8430540   8.4641193
  73.9629257 105.6630540   8.8741193  74.2729257 104.2630540   8.1641193
  72.8529257 105.2730540   7.7441193  72.8029257 102.8730540  14.3741193
  72.6429257 104.0930540  14.3341193  72.1629257 102.1630540  15.3141193
  72.3029257 101.1730540  15.3641193  71.4129257 102.7230540  16.3941193
  70.4829257 103.0830540  15.9941193  70.9429257 101.6030540  17.2741193
  71.7829257 100.9230540  17.5541193  70.2329257 100.9930540  16.6741193
  70.2729257 102.0130540  18.5741193  69.4729257 102.7530540  18.3641193
  70.9829257 102.5730540  19.2141193  69.6829257 100.8230540  19.3441193
  69.2229257 101.3130540  20.2241193  68.8429257 100.3330540  18.8041193
  70.7229257  99.7930540  19.8141193  71.5229257 100.3230540  20.3841193
  71.1729257  99.2730540  18.9441193  70.0529257  98.7730540  20.6741193
  70.7029257  97.9930540  20.9141193  69.7329257  99.2830540  21.5141193
  69.1729257  98.4430540  20.2141193  72.1629257 103.7330540  17.2041193
  71.6729257 104.8530540  17.3541193  73.3929257 103.4330540  17.6841193
  73.9129257 102.6130540  17.4541193  74.0729257 104.4630540  18.5041193
  73.3129257 104.9730540  19.0841193  75.1329257 103.8030540  19.4441193
  75.5529257 104.6130540  20.0841193  75.9729257 103.3030540  18.9241193
  74.6129257 102.8830540  20.4941193  73.4929257 103.1730540  21.2641193
  72.9129257 104.0330540  20.9641193  72.9429257 102.2930540  22.1641193
  72.0629257 102.5630540  22.7141193  73.6829257 101.0430540  22.3441193
  73.3429257 100.4330540  23.1741193  75.3329257 101.6930540  20.6941193
  76.3229257 101.5630540  20.2841193  74.8329257 100.7030540  21.5441193
  75.4229257  99.8030540  21.6841193  74.8929257 105.4930540  17.6541193
  75.5629257 106.3530540  18.2941193  74.8329257 105.4330540  16.3441193
  74.5829257 104.6230540  15.8241193  75.3129257 106.5030540  15.4841193
  76.1129257 107.0730540  15.9441193  75.9329257 106.0030540  14.1241193
  76.0629257 106.7930540  13.3541193  75.2529257 105.1830540  13.8141193
  77.3529257 105.3130540  14.3641193  77.2429257 104.5630540  15.1741193
  78.0629257 106.1030540  14.6841193  77.9529257 104.5930540  13.1841193
  78.1329257 105.3230540  12.3541193  78.9529257 104.2830540  13.5541193
  77.1229257 103.4230540  12.6041193  76.1529257 103.7130540  12.1341193
  76.8829257 102.6830540  13.3941193  78.0029257 102.7730540  11.5741193
  78.8829257 102.2730540  11.8041193  77.4629257 102.0930540  11.0141193
  78.2129257 103.4430540  10.8141193  74.2129257 107.5530540  15.1141193
  73.1429257 107.1130540  14.6941193  74.4929257 108.8830540  15.0241193
  73.7529257 109.8130540  14.1041193  73.5229257 109.2930540  13.1541193
  72.8029257 109.9630540  14.6741193  75.5429257 109.5930540  15.8341193
  76.5329257 109.3630540  15.4841193  75.3129257 111.0730540  15.4241193
  76.2029257 111.7230540  15.5641193  74.4529257 111.4830540  16.0041193
  74.6529257 111.0330540  14.0441193  75.3829257 111.0630540  13.2041193
  74.0629257 111.9430540  13.8441193  75.4829257 109.4930540  17.3041193
  74.4329257 109.1930540  17.8941193  76.5829257 109.6330540  17.9941193
  77.4129257 109.9930540  17.5741193  76.6429257 109.6030540  19.4941193
  76.1729257 108.7130540  19.8841193  78.1229257 109.6430540  19.9541193
  78.2029257 109.9530540  21.0241193  78.5829257 110.4530540  19.3441193
  78.9429257 108.3630540  19.6641193  78.7329257 107.9330540  18.6541193
  80.4329257 108.6830540  19.9341193  80.6929257 109.4130540  19.1441193
  80.5029257 109.2230540  20.9041193  81.1329257 107.8230540  19.8341193
  78.5929257 107.1730540  20.5141193  78.9629257 106.1730540  20.2041193
  78.8129257 107.3430540  21.5841193  77.4829257 107.1130540  20.5841193
  75.8129257 110.8030540  20.0541193  76.0629257 111.9530540  19.8741193
  74.7529257 110.3630540  20.6941193  74.4129257 109.4330540  20.8041193
  73.7329257 111.2230540  21.1541193  73.2029257 111.7330540  20.3641193
  72.6429257 110.3930540  21.9641193  72.1429257 109.7030540  21.2441193
  71.8529257 111.0830540  22.3441193  73.2329257 109.6330540  23.0041193
  72.6729257 108.8630540  23.1841193  74.1829257 112.3530540  22.0841193
  75.0429257 112.1830540  22.9041193  73.5229257 113.5330540  22.0041193
  72.7829257 113.6030540  21.3341193  73.7829257 114.6830540  22.8741193
  73.1529257 115.4930540  22.5241193  73.4329257 114.3830540  24.3541193
  73.4129257 115.3230540  24.9541193  74.0829257 113.6530540  24.8741193
  71.9329257 114.0230540  24.4341193  71.1529257 114.9130540  24.1441193
  71.5829257 112.7930540  24.9641193  72.3229257 112.1930540  25.2641193
  70.6129257 112.5730540  24.9141193  75.2629257 115.2430540  22.7841193
  75.7129257 115.8630540  23.7341193  75.9429257 114.8930540  21.6341193
  75.4529257 114.3430540  20.9541193  77.3929257 115.1930540  21.3541193
  77.6629257 116.0930540  21.8841193  78.3229257 113.9530540  21.6841193
  79.3929257 114.1730540  21.4841193  77.9329257 113.1530540  21.0341193
  78.4729257 113.5430540  23.1541193  77.6129257 113.7730540  23.8241193
  79.2929257 114.1530540  23.5841193  78.8929257 112.0930540  23.4641193
  79.1929257 112.1230540  24.5341193  79.6729257 111.6930540  22.7741193
  77.6529257 111.3330540  23.3641193  76.8429257 111.7830540  22.9841193
  77.6329257 110.0230540  23.6041193  78.6129257 109.3630540  24.1741193
  79.4329257 109.9230540  24.2941193  78.6229257 108.3730540  24.0641193
  76.4829257 109.4430540  23.2741193  75.7929257 109.9830540  22.7941193
  76.3629257 108.5030540  23.5841193  77.5929257 115.5230540  19.8941193
  77.0429257 114.9830540  18.9141193  78.5229257 116.4130540  19.6841193
  78.7129257 117.0530540  20.4241193  79.0029257 116.7330540  18.3841193
  78.1129257 116.7630540  17.7741193  79.5929257 118.1930540  18.3741193
  80.3329257 118.2330540  19.2041193  80.1429257 118.4130540  16.9441193
  80.8329257 117.6430540  16.5541193  79.2829257 118.4730540  16.2341193
  80.7229257 119.3530540  16.9741193  78.4929257 119.2230540  18.6541193
  77.9429257 119.2030540  19.6241193  77.7429257 119.1830540  17.8341193
  79.0229257 120.6230540  18.6141193  79.0729257 120.9230540  17.5441193
  78.4929257 121.4830540  19.0841193  80.0529257 120.6830540  19.0041193
  79.9829257 115.7330540  17.8141193  81.1029257 115.4730540  18.3041193
  79.5829257 115.0830540  16.7041193  78.7829257 115.2930540  16.1441193
  80.3829257 113.9730540  16.1841193  81.1629257 113.6330540  16.8441193
  79.4929257 112.8330540  15.6141193  80.1129257 112.1330540  15.0141193
  78.7029257 113.3030540  14.9841193  78.8829257 111.9330540  16.7141193
  78.8929257 110.7130540  16.6641193  78.3029257 112.5430540  17.7641193
  78.1129257 113.5130540  17.6541193  78.1129257 111.9630540  18.5541193
  81.2129257 114.5730540  15.0141193  80.7429257 115.0630540  14.0141193
  82.5729257 114.4430540  15.1241193  82.8529257 114.0630540  16.0041193
  83.5229257 114.8130540  14.1141193  83.0229257 115.3630540  13.3241193
  84.4929257 115.8730540  14.6641193  85.1429257 115.4530540  15.4541193
  85.4829257 116.3130540  13.5341193  86.2029257 115.5130540  13.2841193
  84.9629257 116.4930540  12.5741193  86.0729257 117.1930540  13.8741193
  83.7729257 117.1230540  15.1941193  83.2529257 117.6230540  14.3441193
  83.0129257 116.9530540  15.9841193  84.5029257 117.8430540  15.6141193
  84.3129257 113.6730540  13.6241193  84.8829257 112.9230540  14.3741193
  84.4229257 113.4830540  12.3041193  83.9829257 114.0030540  11.5841193
  85.1929257 112.3830540  11.7541193  85.5829257 111.7930540  12.5641193
  84.2629257 111.4130540  10.9541193  83.8629257 111.8930540  10.0441193
  85.0229257 110.1230540  10.6941193  85.1229257 109.5030540  11.6141193
  84.3029257 109.5130540  10.1041193  86.0229257 110.2930540  10.2441193
  82.9829257 110.9030540  11.7741193  82.5329257 111.7830540  12.2841193
  83.3629257 110.2830540  12.6041193  81.7629257 110.3830540  10.9941193
  82.0529257 109.5930540  10.2741193  81.0429257 109.8530540  11.6641193
  81.2329257 111.1830540  10.4341193  86.3529257 112.8130540  10.8041193
  86.1829257 113.6630540   9.9241193  87.5429257 112.2130540  11.0041193
  87.6429257 111.5230540  11.7141193  88.7329257 112.2930540  10.1741193
  88.8229257 113.2230540   9.6341193  89.9729257 112.0930540  11.0241193
  90.7929257 111.6930540  10.3941193  89.8029257 111.2330540  11.7041193
  90.3829257 113.3130540  11.7741193  89.4729257 113.8230540  12.1541193
  91.2829257 113.0130540  13.0241193  90.6529257 112.3930540  13.6941193
  92.2529257 112.5530540  12.7241193  91.5129257 113.9930540  13.5041193
  91.0329257 114.3230540  10.8141193  92.0229257 113.8930540  10.5641193
  90.4129257 114.5330540   9.9241193  91.2229257 115.2730540  11.3541193
  88.5729257 111.1930540   9.1441193  88.5429257 110.0030540   9.4041193
  88.4829257 111.6230540   7.8741193  88.4829257 112.5930540   7.6141193
  88.4529257 110.7030540   6.7941193  88.9729257 109.7730540   6.9941193
  87.0329257 110.2430540   6.3741193  86.5529257 110.9630540   5.6841193
  86.4029257 110.1030540   7.2741193  87.1029257 109.1230540   5.4941193
  87.7229257 108.4730540   5.8341193  89.2029257 111.2530540   5.6041193
  89.1029257 112.4330540   5.2741193  89.9829257 110.4030540   4.8741193
  90.2429257 109.5330540   5.2841193  90.5829257 110.7330540   3.6241193
  90.4829257 111.8030540   3.5141193  92.1129257 110.4230540   3.3841193
  92.3529257 110.8230540   2.3741193  92.2629257 109.3230540   3.2741193
  93.0929257 111.2530540   4.3541193  92.7929257 111.1930540   5.4141193
  92.9129257 112.3130540   4.0641193  94.5729257 110.8530540   4.1341193
  95.0529257 111.0030540   3.1441193  94.7629257 109.8030540   4.4141193
  95.3729257 111.6430540   5.1041193  95.7129257 112.5430540   4.8241193
  95.5229257 111.4630540   6.3941193  95.0629257 110.4130540   7.0841193
  94.7929257 109.6630540   6.4841193  95.4529257 110.3030540   8.0041193
  96.1429257 112.3830540   7.1041193  96.1029257 113.2430540   6.5841193
  95.9329257 112.4830540   8.0741193  89.7429257 110.1330540   2.4841193
  89.5729257 110.6630540   1.4141193  89.1129257 109.0030540   2.7541193
  88.9829257 108.6630540   3.6841193  88.5229257 108.0930540   1.6741193
  88.9729257 108.2130540   0.6941193  88.5729257 106.6030540   2.1141193
  87.7529257 106.0730540   1.5841193  88.2829257 106.5130540   3.4841193
  87.7129257 105.7430540   3.5241193  89.9629257 106.0430540   1.7941193
  90.6929257 106.6730540   2.3341193  90.0329257 104.9930540   2.1541193
  90.1929257 106.0530540   0.7041193  86.9829257 108.4930540   1.5341193
  86.4529257 108.2630540   0.4241193  86.3129257 109.1130540   2.5241193
  86.7329257 109.3430540   3.4041193  84.8829257 109.3830540   2.5441193
  84.4129257 109.2230540   1.5841193  84.1329257 108.7230540   3.7441193
  83.0429257 108.9330540   3.7241193  84.7029257 109.0530540   4.6441193
  84.2029257 107.1830540   3.8741193  85.2529257 106.8330540   4.0441193
  83.3029257 106.6430540   5.0341193  83.7529257 106.9030540   6.0141193
  82.2529257 107.0030540   4.9441193  83.2329257 105.5330540   5.0141193
  83.5529257 106.5430540   2.6441193  84.1929257 106.7530540   1.7641193
  83.4029257 105.4830540   2.9341193  82.5229257 106.9130540   2.4441193
  84.6829257 110.9430540   2.6741193  85.3429257 111.6030540   3.5141193
  83.7729257 111.4930540   1.8241193  83.2629257 110.8430540   1.2641193
  83.3629257 112.8830540   1.9941193  84.1629257 113.3530540   2.5441193
  83.2829257 113.5730540   0.5441193  82.9229257 114.6230540   0.5441193
  82.4329257 113.0830540   0.0341193  84.6029257 113.4230540  -0.2258807
  85.0829257 112.4230540  -0.0958807  85.1629257 114.3030540   0.1741193
  22.8329257  51.8330540  85.6041193  22.0229257  51.1630540  85.2241193
  22.4929257  52.8730540  85.4341193  24.1729257  51.5930540  84.8741193
  23.9329257  51.7330540  83.7941193  24.5529257  50.5730540  85.1041193
  25.2029257  52.6630540  85.1841193  25.4029257  52.5930540  86.2041193
  26.0429257  52.7130540  84.5741193  24.7729257  53.5730540  84.9341193
  82.0629257 113.1530540   2.7141193  81.4129257 112.1830540   3.1541193
  81.7029257 114.4130540   2.9141193  82.2729257 115.1930540   2.6641193
  80.3329257 114.6630540   3.4841193  80.3929257 114.1830540   4.4541193
  80.1629257 116.1430540   3.7141193  80.9829257 116.5030540   4.3641193
  79.2629257 116.4830540   4.2741193  80.2829257 117.0230540   2.4641193
  79.4129257 116.8930540   1.7941193  81.1229257 116.6330540   1.8541193
  80.5029257 118.5030540   2.6341193  79.7929257 118.8530540   3.4141193
  81.5229257 118.6930540   3.0341193  80.2729257 119.5230540   1.4341193
  80.8129257 120.4630540   1.7041193  79.2329257 119.8830540   1.3041193
  80.9729257 119.0830540   0.2341193  81.0029257 119.9230540  -0.3758807
  81.9429257 118.7030540   0.3141193  80.3429257 118.4730540  -0.3258807
  79.1129257 114.0730540   2.8241193  78.0729257 113.8230540   3.3341193
  79.2229257 113.8830540   1.5141193  80.0229257 114.1930540   1.0141193
  78.2429257 113.1930540   0.6341193  77.3029257 113.6430540   0.9341193
  16.7829257  51.7130540  86.5041193  15.9929257  51.1230540  85.9841193
  17.7829257  51.4230540  86.1341193  16.6129257  53.2330540  86.1941193
  15.7229257  53.5630540  86.7641193  16.4529257  53.3630540  85.1041193
  17.8829257  54.1230540  86.5041193  19.0329257  53.6230540  86.6941193
  17.7229257  55.3730540  86.2741193  78.0329257 111.7430540   0.9541193
  76.9929257 111.2130540   0.6441193  79.0129257 111.0930540   1.6741193
  79.7829257 111.5730540   2.1041193  79.1129257 109.5930540   1.9741193
  78.5729257 109.1030540   1.1741193  80.6229257 109.1330540   2.0841193
  80.6229257 108.0530540   2.3541193  81.2529257 109.7730540   2.7241193
  81.1529257 109.0830540   0.6741193  80.5929257 108.3130540  -0.1758807
  82.2429257 109.7130540   0.3841193  78.4029257 109.3830540   3.3041193
  78.2129257 108.2430540   3.6841193  77.9429257 110.4930540   3.9341193
  78.0329257 111.4030540   3.5541193  77.2929257 110.5130540   5.2041193
  77.2329257 109.4630540   5.4741193  78.1129257 111.0430540   6.3741193
  77.4829257 110.8230540   7.2541193  78.1829257 112.1430540   6.1941193
  79.4629257 110.4230540   6.5641193  80.5629257 110.8630540   5.8341193
  80.4029257 111.6630540   5.1241193  81.8629257 110.3530540   6.0241193
  82.6729257 110.8030540   5.4641193  82.0129257 109.2230540   6.7941193
  83.0029257 108.8630540   7.0141193  79.6429257 109.3030540   7.4241193
  78.8129257 108.9230540   7.9941193  80.9129257 108.7630540   7.5041193
  81.0529257 107.7930540   7.9541193  75.8629257 111.2030540   5.2141193
  75.7229257 112.3730540   4.7741193  74.8229257 110.3730540   5.5341193
  75.0129257 109.3930540   5.5241193  73.5529257 110.8930540   5.7141193
  73.3129257 111.5730540   4.9141193  72.5929257 109.7130540   5.9041193
  72.8029257 109.0530540   6.7641193  72.6129257 109.0230540   5.0241193
  71.1229257 110.0930540   5.8641193  70.6829257 111.2030540   5.5641193
  70.4429257 109.0830540   6.1941193  73.5129257 111.6630540   7.0541193
  72.8429257 112.6930540   7.2341193  74.1329257 111.0230540   8.0641193
  74.5529257 110.1430540   7.8341193  74.2829257 111.4630540   9.4441193
  73.3029257 111.3630540   9.8841193  75.1829257 110.4730540  10.1041193
  75.5529257 110.8930540  11.0641193  76.0629257 110.2030540   9.4641193
  74.4729257 109.1430540  10.5241193  73.3729257 109.2530540  10.6441193
  74.8429257 108.7530540  11.5041193  74.6229257 107.9630540   9.5341193
  74.9829257 108.1430540   8.3541193  74.3229257 106.8330540   9.9041193
  74.5929257 112.9030540   9.7341193  75.3629257 113.5130540   8.9641193
  74.0429257 113.5330540  10.8041193  73.3129257 112.9930540  11.2041193
  74.5629257 114.7630540  11.3241193  74.5329257 115.4530540  10.4941193
  73.4329257 115.2430540  12.2541193  73.3129257 114.6030540  13.1541193
  72.4329257 115.3330540  11.7841193  73.7129257 116.6630540  12.8441193
  74.3229257 117.5330540  12.1541193  73.2729257 116.8930540  13.9741193
  76.0529257 114.7230540  11.9141193  76.2629257 114.6830540  13.1241193
  77.0729257 114.9230540  11.0141193  76.9629257 114.9130540  10.0241193
  78.4329257 114.7430540  11.4941193  78.4429257 114.9930540  12.5441193
  79.0229257 113.3430540  11.0841193  80.1229257 113.4330540  11.1341193
  78.4829257 112.2230540  11.9541193  79.0629257 112.1930540  12.8941193
  77.3929257 112.4330540  12.0641193  78.8729257 111.2530540  11.5741193
  78.7929257 113.0830540   9.5641193  79.1629257 113.9530540   8.9941193
  79.2929257 112.1330540   9.2841193  77.6929257 113.0630540   9.4041193
  79.2029257 115.8330540  10.8041193  78.7329257 116.4130540   9.8241193
  80.3129257 116.1830540  11.4541193  80.4429257 115.8330540  12.3841193
  81.2929257 116.9730540  10.7641193  80.8329257 117.5730540   9.9941193
  82.0729257 117.9230540  11.7541193  82.8929257 118.3730540  11.1541193
  82.3629257 117.5230540  12.7541193  80.9729257 118.9530540  12.1041193
  80.1729257 118.8130540  13.2441193  80.2529257 117.9230540  13.8441193
  79.2929257 119.8030540  13.6341193  78.7429257 119.8130540  14.5541193
  79.0429257 120.9130540  12.7741193  78.1529257 121.8730540  13.1541193
  77.8729257 122.3330540  12.3541193  80.8329257 120.0630540  11.2641193
  81.4129257 120.2730540  10.3841193  79.9229257 121.0630540  11.6641193
  79.9529257 121.9730540  11.0841193  82.3329257 116.0030540  10.1941193
  82.7329257 115.0730540  10.8541193  82.7029257 116.2130540   8.9041193
  82.2129257 116.9430540   8.4441193  83.7629257 115.5030540   8.1741193
  84.1729257 114.7230540   8.8041193  83.1729257 114.9530540   6.9041193
  82.8429257 115.7930540   6.2541193  84.2629257 114.2430540   6.1141193
  83.9629257 113.8830540   5.1041193  85.1929257 114.8330540   6.0441193
  84.6029257 113.3930540   6.7441193  81.9729257 114.0630540   7.1541193
  81.8229257 113.5230540   6.1941193  81.1129257 114.7430540   7.3441193
  82.0029257 113.0430540   8.2841193  81.9629257 113.5230540   9.2841193
  81.2229257 112.2530540   8.2441193  82.9729257 112.5030540   8.3141193
  84.9529257 116.4830540   7.8941193  84.8029257 117.6330540   7.4241193
  86.2129257 116.0430540   8.1341193  86.3229257 115.0830540   8.3941193
  87.4629257 116.7030540   7.9741193  87.2529257 117.4430540   7.2241193
  88.0129257 117.2930540   9.2641193  89.1029257 117.4830540   9.1341193
  87.1729257 118.6030540   9.6441193  87.1329257 119.3330540   8.8041193
  86.1329257 118.3830540   9.9341193  87.7029257 119.1130540  10.4641193
  88.0229257 116.2630540  10.4841193  88.6429257 115.3630540  10.3141193
  86.9829257 115.8730540  10.6241193  88.4829257 116.9130540  11.7641193
  89.4629257 117.4130540  11.6041193  87.7629257 117.7030540  12.0841193
  88.5429257 116.1830540  12.6041193  88.4129257 115.6530540   7.4141193
  88.2129257 114.4330540   7.6741193  89.5129257 116.0130540   6.7741193
  89.5629257 116.9030540   6.3241193  90.5129257 115.0930540   6.1541193
  90.2829257 114.0530540   6.3241193  90.4529257 115.3630540   4.6541193
  89.3729257 115.1930540   4.4141193  91.0129257 114.5630540   4.1241193
  90.9229257 116.7730540   4.2541193  91.1129257 117.5830540   5.1141193
  90.9629257 117.0230540   2.9341193  90.6129257 116.3230540   2.3041193
  91.0929257 117.9530540   2.6041193  91.9229257 115.3130540   6.7141193
  92.9229257 114.7930540   6.1641193  92.0029257 116.0130540   7.8541193
  91.1029257 116.3130540   8.1741193  93.2029257 116.3530540   8.5141193
  93.7429257 115.4830540   8.8441193  94.0429257 117.2730540   7.6641193
  94.3929257 116.6830540   6.7941193  94.9729257 117.5630540   8.2041193
  93.5529257 118.6730540   7.2141193  93.4229257 119.3230540   8.1041193
  92.6129257 118.5930540   6.6241193  94.5829257 119.4230540   6.3641193
  95.4629257 119.5330540   7.0241193  94.7429257 118.9330540   5.3841193
  94.2129257 120.9030540   6.0541193  95.0129257 121.4330540   5.5141193
  93.8729257 121.4530540   6.9541193  93.0429257 120.9030540   5.1141193
  93.2729257 120.3630540   4.2541193  92.1929257 120.6430540   5.6441193
  92.8429257 121.8630540   4.7641193  92.9429257 117.0530540   9.8441193
  91.9229257 117.6130540  10.1241193  93.9229257 116.9430540  10.7941193
  94.7129257 116.3830540  10.5741193  93.9229257 117.4330540  12.1241193
  93.1029257 117.1030540  12.7341193  95.1729257 116.8830540  12.7941193
  96.0229257 117.1930540  12.1441193  95.5029257 117.4430540  14.1441193
  95.9329257 118.4530540  13.9541193  94.6429257 117.4530540  14.8441193
  96.4029257 116.9830540  14.6141193  95.0329257 115.4030540  12.9841193
  94.1229257 115.1930540  13.5941193  94.9629257 114.8030540  12.0541193
  95.8129257 114.9430540  13.6241193  93.9429257 118.9130540  12.2641193
  93.1429257 119.4530540  12.9841193  94.7029257 119.6530540  11.3941193
  95.3929257 119.1730540  10.8641193  94.7129257 121.0730540  11.3041193
  95.2329257 121.5330540  12.1341193  95.4929257 121.3730540   9.9541193
  95.4229257 122.4730540   9.7741193  94.9029257 120.9930540   9.0941193
  97.0429257 121.0230540   9.9741193  97.4329257 121.7930540  10.6841193
  97.4229257 121.0430540   8.9241193  97.4129257 119.6330540  10.5241193
  96.9629257 118.6330540   9.9041193  98.1329257 119.5830540  11.5341193
  93.2729257 121.6530540  11.1941193  92.8729257 122.6030540  11.8441193
  92.4929257 121.0430540  10.2841193  92.8529257 120.2030540   9.8841193
  91.1029257 121.3530540  10.1441193  91.0629257 122.4330540  10.0541193
  90.5729257 120.6630540   8.8241193  89.4629257 120.7330540   8.7341193
  90.7729257 119.5730540   8.7741193  91.0829257 121.3330540   7.5941193
  91.7429257 122.4030540   7.7141193  90.7929257 120.9130540   6.4441193
  90.1629257 121.0530540  11.3141193  89.1129257 121.6530540  11.4241193
  90.4829257 120.0830540  12.2241193  91.3729257 119.6330540  12.1241193
  89.7829257 120.0730540  13.4941193  88.7329257 120.0130540  13.2641193
  90.2929257 118.8630540  14.4041193  91.3329257 119.1230540  14.6941193
  90.4129257 117.9430540  13.8041193  89.4829257 118.6630540  15.7241193
  89.2729257 119.6330540  16.2241193  88.1329257 118.0130540  15.4841193
  88.1829257 116.9330540  15.2341193  87.5429257 118.1730540  16.4041193
  87.6429257 118.5530540  14.6441193  90.3629257 117.9130540  16.7241193
  90.0029257 117.7730540  17.7641193  90.6029257 116.8930540  16.3441193
  91.2229257 118.6230540  16.7241193  89.8629257 121.3530540  14.3141193
  88.8929257 121.8630540  14.7941193  91.1329257 121.9130540  14.4741193
  92.0029257 121.4830540  14.2241193  91.4129257 123.1430540  15.2541193
  91.0029257 122.8830540  16.2141193  92.8929257 123.3730540  15.3841193
  93.1429257 123.9630540  14.4741193  93.0929257 124.2430540  16.5741193
  94.1229257 124.5930540  16.8041193  92.4329257 125.1330540  16.5341193
  92.7629257 123.6230540  17.4441193  93.9029257 122.2130540  15.4341193
  94.9029257 122.6130540  15.7341193  93.9829257 121.7030540  14.4641193
  93.5029257 121.0630540  16.3941193  93.3729257 121.4530540  17.4241193
  92.6229257 120.4730540  16.0441193  94.4029257 120.4130540  16.5241193
  90.6729257 124.3230540  14.6941193  90.1529257 125.1630540  15.4641193
  90.6129257 124.4730540  13.3741193  91.2329257 123.9430540  12.8041193
  89.8629257 125.4730540  12.6841193  90.1029257 126.4530540  13.0641193
  90.1329257 125.3730540  11.1941193  89.8929257 124.4030540  10.7141193
  89.3829257 126.4330540  10.3141193  88.4029257 126.0330540   9.9941193
  89.2329257 127.3930540  10.8441193  89.9729257 126.6830540   9.3941193
  91.5329257 125.5930540  10.9741193  92.2829257 124.8830540  11.3841193
  91.7329257 125.5430540   9.8841193  91.9729257 126.5830540  11.2341193
  88.2929257 125.3430540  12.9241193  87.6229257 126.3330540  13.2741193
  87.7129257 124.1330540  12.8641193  88.3629257 123.4230540  12.6341193
  86.3429257 123.7630540  13.2041193  85.7029257 124.4730540  12.7141193
  86.0929257 122.2030540  13.0541193  86.7929257 121.5830540  13.6641193
  86.3529257 122.0730540  11.9841193  84.6029257 121.7730540  13.1441193
  84.2429257 122.0530540  14.1541193  83.6429257 122.4930540  12.1141193
  84.0529257 122.3530540  11.0841193  82.6329257 122.0630540  12.2541193
  83.6529257 123.5630540  12.4041193  84.4529257 120.3030540  12.9141193
  84.7829257 120.1330540  11.8641193  85.0629257 119.6230540  13.5441193
  83.4029257 119.9930540  13.0741193  86.1029257 123.9230540  14.7441193
  85.1029257 124.5330540  15.1441193  87.0129257 123.5230540  15.6441193
  87.7729257 122.9530540  15.3341193  86.9229257 123.8330540  17.0741193
  85.9629257 123.5330540  17.4841193  88.2129257 123.2430540  17.8341193
  88.2429257 123.6230540  18.8741193  89.1029257 123.4630540  17.2041193
  88.1429257 121.6730540  17.9941193  88.1029257 121.2330540  16.9841193
  89.3929257 121.1230540  18.7741193  90.2929257 120.8930540  18.1641193
  89.6929257 121.8830540  19.5241193  89.2129257 120.2230540  19.4141193
  86.9629257 121.2030540  18.8941193  86.0629257 121.8030540  18.6341193
  86.6029257 120.1830540  18.6441193  87.2329257 121.2130540  19.9741193
  86.9929257 125.3530540  17.4141193  86.2029257 125.8630540  18.1941193
  87.7829257 126.1030540  16.6141193  88.5029257 125.6930540  16.0541193
  87.7229257 127.5430540  16.4741193  87.9829257 128.0130540  17.4041193
  88.1929257 127.8130540  15.5441193  86.3129257 128.0630540  16.1541193
  85.8729257 129.0430540  16.7241193  85.5529257 127.3930540  15.2641193
  85.7129257 126.5230540  14.8041193  84.2429257 127.8530540  14.9541193
  84.1829257 128.9330540  14.9041193  83.7829257 127.4330540  13.5341193
  82.7329257 127.7830540  13.4541193  83.8929257 126.3330540  13.5041193
  84.7229257 128.0030540  12.4041193  85.8129257 127.8430540  12.5741193
  84.5829257 129.1030540  12.3441193  84.3929257 127.3430540  11.0841193
  84.5629257 126.2530540  11.1141193  83.3229257 127.5230540  10.8841193
  85.2729257 128.0030540  10.0141193  86.3429257 127.9430540  10.3141193
  84.9529257 129.0630540   9.9641193  85.0329257 127.2630540   8.7941193
  84.0429257 127.0130540   8.5741193  85.2829257 127.8130540   7.9441193
  85.6429257 126.4230540   8.7441193  83.2029257 127.3730540  15.9141193
  82.1729257 128.0230540  16.1141193  83.3129257 126.2030540  16.5441193
  84.0429257 125.5630540  16.3141193  82.3029257 125.5730540  17.4641193
  81.3229257 125.7930540  17.0541193  82.4729257 124.0230540  17.5741193
  81.7029257 123.6030540  18.2541193  83.4429257 123.8930540  18.0941193
  82.2629257 123.2130540  16.2441193  83.0629257 123.4530540  15.5241193
  82.4229257 121.6930540  16.5641193  81.6329257 121.3630540  17.2741193
  82.5229257 121.1130540  15.6241193  83.4329257 121.4830540  16.9641193
  80.9929257 123.6230540  15.4641193  81.0029257 124.7230540  15.3041193
  81.0529257 123.0230540  14.5341193  80.1229257 123.3730540  16.0941193
  82.2429257 126.2030540  18.8541193  83.1929257 126.8330540  19.3441193
  81.1329257 126.1130540  19.5841193  80.2929257 125.9830540  19.0641193
  81.0229257 126.4130540  21.0141193  81.8529257 126.9330540  21.4741193
  79.7629257 127.3730540  21.2441193  79.5629257 127.5230540  22.3241193
  78.8829257 126.9130540  20.7541193  80.0729257 128.7430540  20.5741193
  79.4029257 129.1630540  19.6541193  80.9929257   5.8930540  21.2141193
  81.4629257 129.0530540  21.9941193  81.1229257   6.8530540  21.0041193
  80.7529257 125.0530540  21.6041193  79.8529257 124.3530540  21.1741193
  81.6129257 124.6630540  22.5141193  82.2629257 125.3230540  22.8841193
  81.6229257 123.3330540  23.0641193  80.6029257 123.0030540  23.1541193
  82.3229257 122.3830540  22.1241193  81.8029257 122.4230540  21.1441193
  82.2029257 121.3830540  22.6041193  83.7929257 122.7130540  21.9441193
  84.2129257 123.6930540  20.9641193  83.4329257 124.1630540  20.3741193
  85.5929257 123.8430540  20.8041193  85.9829257 124.5630540  20.1141193
  86.4029257 123.2430540  21.7541193  87.6629257 123.7730540  21.8741193
  88.2729257 123.1830540  22.3241193  84.5829257 122.0330540  22.7941193
  84.2229257 121.2430540  23.4441193  85.9829257 122.3130540  22.7641193
  86.7329257 121.9030540  23.4241193  82.2329257 123.4230540  24.4241193
  83.0029257 124.3630540  24.7141193  81.9829257 122.4530540  25.2241193
  81.3729257 121.7430540  24.8741193  82.5529257 122.3630540  26.5741193
  82.7129257 123.3830540  26.8841193  81.5329257 121.6730540  27.5241193
  81.3729257 120.6530540  27.1041193  80.5129257 122.1230540  27.4941193
  82.0229257 121.4830540  28.9341193  82.2529257 122.6230540  29.7141193
  82.0629257 123.5930540  29.2641193  82.8529257 122.4630540  31.0241193
  83.1129257 123.3530540  31.5841193  83.0329257 121.2130540  31.6341193
  83.5429257 121.0430540  33.0141193  83.7629257 120.1230540  33.1441193
  82.2229257 120.2230540  29.4841193  82.0429257 119.3230540  28.9241193
  82.6529257 120.1130540  30.8341193  82.6729257 119.1130540  31.2441193
  83.9529257 121.6630540  26.4541193  84.9929257 122.2730540  26.4541193
  84.0029257 120.3330540  26.2941193  83.2029257 119.7430540  26.2941193
  85.2929257 119.5930540  26.0941193  86.0329257 120.3730540  26.0041193
  85.6029257 118.6530540  27.2841193  86.5429257 118.1630540  26.9441193
  84.7729257 117.9330540  27.4141193  85.9629257 119.5830540  28.4241193
  85.1429257 120.2730540  28.7141193  86.8029257 120.2630540  28.1641193
  86.1529257 118.9230540  29.8341193  85.1429257 118.5530540  30.0941193
  86.8329257 118.0530540  29.7941193  86.6829257 120.0130540  30.7341193
  85.9329257 120.8230540  30.8141193  87.6429257 120.4430540  30.3841193
  86.9229257 119.2830540  32.0141193  87.1929257 118.2930540  31.8641193
  87.7629257 119.6730540  32.4941193  86.1629257 119.3930540  32.7141193
  85.3129257 118.9630540  24.7441193  84.3329257 118.7730540  24.0941193
  86.5429257 118.6730540  24.2241193  87.3529257 118.8730540  24.7841193
  86.8129257 117.9030540  23.0541193  85.8829257 117.5830540  22.6041193
  87.7129257 118.6530540  22.0641193  88.7129257 118.8130540  22.5341193
  87.4429257 119.7130540  21.8741193  88.0329257 117.6930540  20.5341193
  86.8829257 118.0730540  19.9841193  87.4029257 116.5930540  23.4741193
  88.4429257 116.5930540  24.1241193  86.8429257 115.4630540  23.1441193
  85.9429257 115.4830540  22.7241193  87.3229257 114.1430540  23.4641193
  88.2229257 114.1630540  24.0641193  86.1629257 113.4330540  24.0841193
  86.3629257 112.3530540  23.9841193  85.2029257 113.6730540  23.5841193
  86.0029257 113.7630540  25.5741193  86.9829257 113.4130540  26.5441193
  87.8529257 112.8730540  26.2141193  86.9429257 113.8530540  27.8241193
  87.6329257 113.6830540  28.6341193  85.8129257 114.6730540  28.2341193
  85.5929257 115.1930540  29.1541193  84.8229257 114.4130540  25.9941193
  83.9729257 114.6930540  25.3741193  84.8129257 114.8630540  27.2341193
  83.9329257 115.4130540  27.5541193  87.8129257 113.3430540  22.2141193
  86.9329257 113.0530540  21.4341193  89.0629257 112.9730540  22.0641193
  89.7029257 113.5130540  22.6141193  89.6329257 112.0230540  21.1041193
  89.1329257 112.1930540  20.1641193  91.2329257 112.0630540  21.0041193
  91.7429257 111.7630540  21.9441193  91.7729257 111.1830540  19.8541193
  91.3629257 110.1530540  19.8741193  91.5429257 111.6730540  18.8841193
  92.8729257 111.0130540  19.8841193  91.7629257 113.5130540  20.8141193
  92.8129257 113.3830540  20.4641193  91.7029257 114.2130540  21.6741193
  91.0629257 114.3230540  19.6741193  91.7529257 115.0530540  19.2041193
  90.9329257 113.6530540  18.7941193  90.0829257 114.6730540  20.0541193
  89.3029257 110.6530540  21.5441193  89.4229257 110.2930540  22.6841193
  88.6329257 109.8830540  20.6141193  88.2429257 110.2930540  19.7941193
  88.0229257 108.6030540  20.9241193  88.3629257 108.3230540  21.9141193
  86.4829257 108.7430540  21.0041193  86.0929257 107.7730540  21.3641193
  85.9329257 109.6630540  22.0741193  86.1129257 110.6530540  21.6141193
  84.8429257 109.6230540  22.2541193  86.5129257 109.5030540  23.0141193
  85.7929257 108.9330540  19.6041193  86.2929257 108.2730540  18.8641193
  85.8929257 110.0030540  19.3141193  84.2829257 108.5430540  19.6741193
  83.7429257 108.9930540  20.5341193  83.7229257 108.8430540  18.7641193
  84.2929257 107.4330540  19.7241193  88.4829257 107.4530540  20.0741193
  88.0229257 106.2930540  20.2041193  89.5529257 107.7330540  19.2241193
  89.9129257 108.6530540  19.3441193  90.3529257 106.8030540  18.4641193
  91.2929257 107.3130540  18.3041193  90.3629257 105.8330540  18.9341193
  89.8529257 106.6130540  17.0541193  89.1329257 107.4730540  16.5541193
  90.1829257 105.4730540  16.3841193  89.8829257 105.4930540  15.4341193
  91.0229257 104.3930540  16.8441193  90.6229257 103.9930540  17.7741193
  90.8629257 103.6630540  16.0641193  92.5329257 104.7530540  16.8841193
  92.8729257 105.8630540  17.1741193  93.3629257 103.7130540  16.7041193
  92.9829257 102.8130540  16.5041193  94.7629257 103.8130540  17.0941193
  94.8329257 104.0830540  18.1441193  95.4829257 102.4330540  16.7941193
  94.8629257 101.6230540  17.2241193  96.4429257 102.2230540  17.3241193
  95.5029257 102.2330540  15.3641193  96.3729257 101.8830540  15.1741193
  95.6729257 104.8730540  16.5441193  96.4529257 105.5730540  17.1541193
  95.5029257 105.0530540  15.1841193  95.0529257 104.2530540  14.7841193
  96.1129257 106.1430540  14.3941193  97.1729257 106.0130540  14.5541193
  95.8129257 106.0730540  12.9141193  94.7229257 106.2330540  12.7741193
  96.4629257 107.0730540  11.9841193  96.0729257 106.9630540  10.9541193
  96.2429257 108.1130540  12.3141193  97.5529257 106.8930540  11.8141193
  96.3829257 104.6730540  12.4841193  95.6129257 103.9130540  12.7541193
  96.6829257 104.4930540  11.4341193  97.3329257 104.4930540  13.0341193
  95.7329257 107.5130540  14.8641193  96.5929257 108.3630540  15.0341193
  94.4329257 107.6930540  15.0741193  93.7629257 107.0030540  14.7941193
  93.8829257 108.9030540  15.5841193  94.3329257 109.5730540  14.8641193
  92.2929257 108.9230540  15.6141193  92.0329257 107.9430540  16.0741193
  91.6429257 110.0030540  16.5441193  90.5429257 110.0530540  16.3941193
  91.8729257 109.7730540  17.6041193  92.0729257 110.9730540  16.2241193
  91.8329257 109.0330540  14.1341193  92.3129257 109.9130540  13.6641193
  92.1929257 108.1130540  13.6341193  90.7229257 109.0130540  14.0941193
  94.4829257 109.1830540  16.9241193  94.8729257 110.2830540  17.2841193
  94.7029257 108.2130540  17.8141193  94.5129257 107.2630540  17.5841193
  95.3929257 108.3730540  19.1141193  95.0029257 109.1730540  19.7341193
  95.3029257 107.0730540  20.0241193  95.8829257 107.2430540  20.9541193
  95.8229257 106.1830540  19.5841193  93.8929257 106.8230540  20.5641193
  93.1329257 107.7930540  21.2441193  93.5529257 108.7830540  21.3741193
  91.8929257 107.4430540  21.7841193  91.2929257 108.1030540  22.3841193
  91.3729257 106.1330540  21.6141193  90.2729257 105.7030540  22.3341193
  89.9829257 106.4230540  22.9041193  93.3529257 105.5630540  20.4141193
  93.8629257 104.7830540  19.8641193  92.0729257 105.1530540  20.8941193
  91.6429257 104.1830540  20.6941193  96.8829257 108.7830540  18.9541193
  97.3229257 109.7930540  19.4841193  97.6129257 108.0730540  18.1041193
  97.1529257 107.2930540  17.6841193  99.0329257 108.3230540  17.7641193
  99.6129257 108.2930540  18.6741193  99.4729257 107.2430540  16.7141193
  98.8329257 107.1130540  15.8241193  99.4129257 106.2930540  17.2841193
 100.9229257 107.3330540  16.1541193 101.0529257 108.0130540  15.2841193
 101.1229257 106.3430540  15.6841193 102.0129257 107.3830540  17.2541193
 102.1429257 106.4730540  18.0241193 102.7829257 108.4830540  17.3041193
 102.6729257 109.2930540  16.7341193 103.5729257 108.4130540  17.9041193
  99.3029257 109.6630540  17.1541193 100.1729257 110.4630540  17.5241193
  98.5329257 110.1930540  16.0941193  97.7729257 109.6530540  15.7541193
  98.7829257 111.4530540  15.4641193  99.8029257 111.6030540  15.1441193
  98.0529257 111.4730540  14.0941193  98.1729257 110.5130540  13.5441193
  98.5129257 112.3230540  13.5541193  96.5629257 111.7130540  13.9641193
  96.2429257 112.7330540  14.2841193  96.0129257 111.0830540  14.6941193
  96.0629257 111.4130540  12.6141193  96.6429257 111.9130540  11.5941193
  95.0529257 110.6530540  12.5941193  98.4329257 112.6130540  16.3841193
  99.1129257 113.6430540  16.2641193  97.4129257 112.4730540  17.3841193
  96.7729257 111.7030540  17.3741193  97.2229257 113.5330540  18.3941193
  97.3329257 114.5130540  17.9541193  95.8029257 113.2530540  18.9941193
  95.7329257 113.6930540  20.0141193  95.6229257 112.1630540  18.8941193
  94.8229257 114.0730540  18.1241193  94.1829257 113.4730540  17.0641193
  94.5229257 112.4930540  16.7541193  93.3829257 114.3030540  16.1841193
  93.0729257 113.8430540  15.2641193  93.1529257 115.6330540  16.5241193
  92.5929257 116.2430540  15.8341193  94.4129257 115.3830540  18.5241193
  94.9029257 115.7830540  19.4041193  93.5729257 116.1730540  17.7741193
  93.2829257 117.1730540  18.0641193  98.3629257 113.4530540  19.4541193
  98.7729257 114.4730540  20.0541193  98.8029257 112.2430540  19.8041193
  98.4129257 111.4330540  19.3641193  99.9729257 112.1730540  20.7241193
  99.8029257 112.7730540  21.6041193 100.2029257 110.7330540  21.4141193
 101.2629257 110.6530540  21.7141193 100.0829257 110.0130540  20.5841193
  99.2029257 110.3430540  22.4841193  98.1929257 110.6430540  22.1341193
  99.0229257 108.8730540  22.7541193  98.3729257 108.7530540  23.6541193
  98.5129257 108.4230540  21.8841193  99.9929257 108.3730540  22.9841193
  99.2129257 111.0830540  23.8141193  99.1929257 112.1930540  23.6941193
  98.4029257 110.7830540  24.5141193 100.2029257 110.9030540  24.2941193
 101.2929257 112.8030540  20.2041193 102.0129257 113.5930540  20.8841193
 101.7129257 112.5530540  18.9241193 101.1829257 111.9830540  18.3041193
 102.9329257 113.0930540  18.3941193 103.6529257 113.0530540  19.2041193
 103.4029257 112.3130540  17.0941193 103.5029257 111.2530540  17.4141193
 104.4429257 112.5630540  16.8141193 102.5129257 112.4630540  15.8841193
 102.6729257 113.5030540  15.5241193 101.4229257 112.3330540  16.0741193
 102.8829257 111.5530540  14.7841193 102.9729257 110.3230540  15.0041193
 103.2829257 112.0330540  13.6741193 102.7629257 114.5530540  18.0041193
 103.7629257 115.2830540  17.9341193 101.5229257 115.0430540  17.7741193
 100.8529257 114.3130540  17.6641193 101.3629257 116.4630540  17.5441193
 102.2629257 116.7530540  17.0141193 100.1429257 116.7930540  16.5241193
  99.7529257 117.8330540  16.6341193  99.3529257 116.0830540  16.8241193
 100.6329257 116.6430540  15.0741193 100.9629257 115.6130540  14.8341193
 101.4629257 117.3630540  14.9141193  99.4929257 116.9230540  14.0141193
  98.5629257 116.3530540  14.1841193  99.3529257 118.0230540  14.0841193
  99.9029257 116.5330540  12.5941193  99.9829257 115.4230540  12.5341193
 100.8929257 116.9730540  12.3541193  98.9729257 116.9630540  11.5041193
  98.1529257 116.3230540  11.5141193  98.6929257 117.9530540  11.6641193
  99.4129257 116.8530540  10.5641193 101.1729257 117.2430540  18.7941193
 101.0229257 118.4430540  18.8041193 101.1129257 116.4930540  19.9241193
 101.1729257 115.4930540  19.8441193 101.2429257 116.9030540  21.3441193
 101.4429257 116.0630540  21.9941193 102.5129257 117.8130540  21.6241193
 102.6129257 117.8830540  22.7241193 102.4229257 118.7930540  21.1141193
 103.8129257 117.2430540  21.1441193 104.7429257 117.8430540  21.2641193
 103.7229257 117.0930540  20.0441193 104.2529257 115.9430540  21.8641193
 104.2929257 116.2430540  22.9341193 103.4829257 115.1430540  21.7241193
 105.5529257 115.4830540  21.3941193 106.3629257 116.2330540  21.5141193
 105.5829257 115.3530540  20.2941193 105.8629257 114.1930540  21.9741193
 106.8029257 113.7430540  21.9141193 105.5929257 114.2330540  22.9741193
 105.2429257 113.5030540  21.4941193  99.9429257 117.6330540  21.7941193
  99.9029257 118.5130540  22.6441193  98.8129257 117.1130540  21.2741193
  98.8729257 116.3630540  20.6141193  97.5029257 117.7530540  21.2841193
  97.6129257 118.8130540  21.4841193  96.7729257 117.4830540  19.9841193
  95.6829257 117.6830540  19.9441193  97.0129257 116.4130540  19.8141193
  97.3429257 118.3130540  18.8741193  98.4229257 118.0730540  18.7741193
  96.6429257 117.9130540  17.5541193  96.6729257 116.8030540  17.5141193
  95.5829257 118.2230540  17.4041193  97.1729257 118.2730540  16.6541193
  97.2929257 119.8330540  19.1241193  97.9929257 120.0830540  19.9441193
  97.7329257 120.3030540  18.2141193  96.2729257 120.2630540  19.1941193
  96.7029257 117.3330540  22.4041193  95.5829257 117.7530540  22.5141193
  97.2529257 116.4730540  23.3241193  98.1529257 116.1130540  23.0941193
  96.3929257 115.8830540  24.3241193  95.3329257 116.0430540  24.2041193
  96.6229257 114.4030540  24.3641193  97.7129257 114.1930540  24.3841193
  95.9229257 113.8130540  25.5641193  94.9029257 114.2530540  25.6541193
  95.7229257 112.7230540  25.4941193  96.3729257 113.9630540  26.5741193
  96.0729257 113.6630540  23.0441193  96.3029257 112.5830540  23.1741193
  96.7029257 114.0330540  22.2141193  94.5729257 113.8030540  22.8141193
  94.3229257 113.0630540  22.0241193  93.9929257 113.5930540  23.7341193
  94.2729257 114.8130540  22.4641193  96.8029257 116.5430540  25.6841193
  97.9529257 116.7330540  26.0741193  95.7829257 117.0730540  26.4241193
  94.9029257 117.1830540  25.9641193  95.9529257 117.6130540  27.7341193
  96.9429257 117.9830540  27.9641193  94.8429257 118.7330540  27.9741193
  93.8329257 118.2930540  27.8041193  95.0129257 119.4930540  27.1841193
  94.9029257 119.4530540  29.3441193  95.9329257 119.8530540  29.4041193
  94.7529257 118.7230540  30.1641193  94.0329257 120.6130540  29.3841193
  94.3729257 121.3230540  28.6041193  92.9829257 120.3930540  29.0841193
  93.9729257 121.4230540  30.7041193  94.9229257 121.3030540  31.2541193
  93.1829257 121.1530540  31.4341193  93.6329257 122.8230540  30.2441193
  94.4429257 123.2730540  29.7841193  92.8229257 122.8630540  29.5841193
  93.4029257 123.3830540  31.0941193  95.9129257 116.5030540  28.9041193
  96.6929257 116.5730540  29.8741193  94.9729257 115.5430540  28.7141193
  94.4429257 115.6130540  27.8741193  94.7629257 114.4430540  29.5841193
  95.7329257 114.1630540  29.9641193  93.6829257 114.5830540  30.8241193
  93.9329257 113.7430540  31.5141193  92.6729257 114.4430540  30.3941193
  93.8129257 115.8230540  31.7541193  93.8429257 116.6330540  30.9941193
  94.8229257 115.8530540  32.2141193  92.6229257 115.8930540  32.6741193
  91.6829257 115.7630540  32.0941193  92.8129257 115.0530540  33.3741193
  92.5129257 117.0630540  33.5641193  92.4129257 118.0730540  33.1241193
  93.3629257 117.1630540  34.2641193  91.3429257 116.9130540  34.4541193
  91.3129257 116.0330540  35.0041193  91.2429257 117.7730540  35.0441193
  90.5029257 116.8330540  33.8341193  94.2229257 113.2730540  28.8541193
  93.4329257 113.2630540  27.8841193  94.7629257 112.1030540  29.3241193
  95.4729257 112.0230540  30.0241193  94.2629257 110.8030540  28.8341193
  93.5729257 110.9030540  28.0041193  95.4429257 109.8630540  28.4641193
  95.9229257 109.5330540  29.4141193  94.8829257 108.7830540  27.5641193
  94.0929257 108.1430540  28.0141193  94.3129257 109.2330540  26.7241193
  95.6629257 108.1530540  27.0841193  96.6929257 110.5930540  27.8341193
  96.9829257 111.4530540  28.4541193  96.2729257 111.0130540  26.8941193
  97.9029257 109.7230540  27.4941193  97.8229257 109.4430540  26.4241193
  98.8429257 110.3130540  27.5941193  97.9329257 108.8130540  28.1441193
  93.5229257 110.0030540  29.8941193  94.0629257 109.4930540  30.9141193
  92.2129257 109.8930540  29.7441193  91.7729257 110.3130540  28.9541193
  91.2929257 109.0630540  30.5841193  91.4929257 109.0830540  31.6441193
  89.9029257 109.6830540  30.4241193  89.0929257 109.0330540  30.8141193
  89.7629257 109.9830540  29.3641193  89.9329257 111.0230540  31.2041193
  89.9529257 112.2330540  30.5541193  90.1129257 112.2130540  29.4841193
  89.6829257 113.4230540  31.2141193  89.9629257 114.3830540  30.8141193
  89.3229257 113.3330540  32.5841193  89.0929257 114.5830540  33.2941193
  88.6429257 114.4530540  34.1341193  89.4929257 110.9730540  32.5241193
  89.4129257 109.9730540  32.9241193  89.1029257 112.1130540  33.2241193
  89.0429257 112.1430540  34.3041193  91.3529257 107.6030540  30.0941193
  90.8329257 107.3330540  29.0041193  92.0029257 106.6930540  30.8341193
  92.2829257 106.7730540  31.7941193  92.4329257 105.4330540  30.3941193
  92.1329257 105.2830540  29.3641193  94.0429257 105.4530540  30.6741193
  94.2729257 105.3430540  31.7541193  94.2629257 106.4930540  30.3641193
  94.7929257 104.4830540  29.8741193  94.8029257 103.1930540  30.4141193
  94.1329257 102.9430540  31.2341193  95.6429257 102.2530540  29.8241193
  95.7629257 101.2430540  30.1741193  96.3529257 102.5030540  28.6141193
  96.8129257 101.7530540  27.9841193  95.5829257 104.8030540  28.7341193
  95.6829257 105.7730540  28.2741193  96.3229257 103.7830540  28.0841193
  96.8729257 103.9730540  27.1741193  91.7529257 104.2830540  31.2141193
  91.7829257 104.2330540  32.4641193  91.1829257 103.2730540  30.5441193
  91.1729257 103.1430540  29.5541193  90.6529257 102.1030540  31.2241193
  90.5129257 102.3430540  32.2741193  89.2229257 101.7230540  30.6641193
  89.2929257 101.1030540  29.7441193  88.5129257 102.8730540  30.2941193
  87.7529257 102.5030540  29.8441193  88.3829257 100.9830540  31.6841193
  87.3929257 100.6930540  31.2641193  88.9329257 100.0630540  31.9441193
  88.4429257 101.6730540  32.5541193  91.5629257 100.9530540  31.0741193
  92.0829257 100.7030540  30.0141193  91.8529257 100.2930540  32.2241193
  91.5029257 100.5830540  33.1041193  92.5829257  99.0730540  32.2241193
  93.2029257  99.0730540  31.3441193  93.5329257  99.1730540  33.4041193
  94.1629257  98.2530540  33.3541193  92.9529257  99.1630540  34.3541193
  94.5029257 100.4130540  33.2441193  93.9629257 101.3730540  33.3841193
  95.0329257 100.5030540  32.2641193  95.7529257 100.3930540  34.2441193
  96.4529257 101.1530540  33.8541193  96.2029257  99.3830540  34.3641193
  95.3429257 100.8230540  35.5841193  94.3629257 100.7930540  35.7741193
  96.1029257 101.0630540  36.6141193  97.4129257 100.8230540  36.6141193
  97.8129257 100.6530540  35.7141193  97.9429257 100.9530540  37.4541193
  95.6129257 101.0630540  37.8541193  94.6329257 100.9330540  37.9841193
  96.2329257 100.8030540  38.5941193  91.7029257  97.8230540  32.2941193
  91.2829257  97.3730540  33.3341193  91.5029257  97.1430540  31.1441193
  91.9229257  97.5030540  30.3141193  90.7229257  95.9230540  31.0841193
  89.9329257  95.8830540  31.8141193  90.0929257  95.6530540  29.7041193
  90.9029257  95.5130540  28.9541193  89.2529257  94.3730540  29.6441193
  88.6329257  94.2330540  28.7241193  89.8629257  93.4530540  29.5441193
  88.5629257  94.4430540  30.5141193  89.2629257  96.8930540  29.1441193
  88.7529257  96.6030540  28.1941193  90.0429257  97.6230540  28.8241193
  88.1929257  97.5930540  30.0241193  87.8229257  98.5230540  29.5341193
  87.3629257  96.8830540  30.2041193  88.7729257  97.8330540  30.9441193
  91.5229257  94.7830540  31.4441193  92.4429257  94.4330540  30.7041193
  91.2029257  94.1230540  32.5741193  90.3629257  94.2330540  33.1141193
  92.1429257  93.1630540  33.2041193  93.1529257  93.3830540  32.8641193
  92.1429257  93.1930540  34.7341193  91.2929257  92.5530540  35.0541193
  92.3329257  94.1930540  35.1941193  93.4029257  92.5230540  35.2541193
  94.4129257  92.3230540  34.5141193  93.4629257  92.1430540  36.5141193
  93.0429257  92.7130540  37.2241193  94.1329257  91.4330540  36.7141193
  91.9229257  91.7130540  32.5841193  92.0329257  90.7530540  33.3441193
  91.8429257  91.5330540  31.2941193  91.8429257  92.2630540  30.6241193
  91.6929257  90.2730540  30.6841193  92.3129257  89.5830540  31.2241193
  90.2429257  89.6930540  30.6241193  90.0329257  89.1930540  31.5841193
  90.1129257  88.9230540  29.8241193  89.2029257  90.6630540  30.4841193
  88.6529257  90.3130540  29.7841193  92.4129257  90.3330540  29.3141193
  92.8029257  91.4030540  28.9141193  92.7229257  89.1930540  28.7141193
  92.3029257  88.3430540  29.0341193  93.7229257  89.0230540  27.7141193
  94.3329257  89.8930540  27.5241193  94.7329257  87.9530540  28.1041193
  94.2329257  86.9630540  28.0741193  95.0429257  88.1530540  29.4841193
  94.3629257  87.6630540  29.9541193  96.0429257  87.9830540  27.2241193
  96.8029257  87.2230540  27.4941193  95.6829257  87.7130540  26.2141193
  96.5029257  88.9930540  27.1941193  93.1029257  88.5830540  26.4341193
  92.3529257  87.6430540  26.4941193  93.4729257  89.1630540  25.2441193
  94.1529257  89.9030540  25.2541193  92.6929257  88.9030540  24.0341193
  92.1929257  87.9530540  23.9541193  91.5629257  90.0330540  23.8741193
  91.0329257  89.8930540  22.9141193  92.0329257  91.0330540  23.7941193
  90.6229257  89.9030540  24.9941193  90.7129257  90.8130540  26.1441193
  91.4429257  91.5830540  26.3241193  89.7829257  90.7230540  27.1441193
  89.7129257  91.3830540  27.9941193  88.7829257  89.7430540  26.9941193
  87.8529257  89.6930540  28.0741193  87.2529257  89.0130540  27.7541193
  89.5129257  89.0730540  24.8541193  89.4829257  88.3430540  24.0541193
  88.6129257  88.9330540  25.9041193  87.8129257  88.2130540  25.7941193
  93.6429257  89.1930540  22.7741193  94.6329257  89.8430540  22.8241193
  93.3529257  88.5030540  21.6541193  92.7029257  87.7530540  21.7741193
  94.0029257  88.7330540  20.4041193  95.0629257  88.5530540  20.4941193
  93.6029257  87.6230540  19.4541193  92.4929257  87.6630540  19.4941193
  93.8629257  86.6630540  19.9441193  94.0029257  87.8430540  17.9541193
  95.1129257  87.7930540  18.0141193  93.7429257  88.7630540  17.3941193
  93.4729257  86.7730540  17.0141193  92.3129257  86.9530540  16.4641193
  94.1929257  85.7230540  16.8241193  93.7129257  90.1730540  19.8941193
  92.5929257  90.6930540  20.0341193  94.6929257  90.8130540  19.3041193
  95.5929257  90.3930540  19.3941193  94.6629257  92.2030540  18.9141193
  93.6529257  92.5230540  18.6941193  95.1829257  93.1430540  20.0641193
  95.3929257  94.1930540  19.7341193  96.1429257  92.7230540  20.4441193
  93.7229257  93.3530540  21.2241193  93.4729257  92.0630540  21.0441193
  95.4429257  92.4330540  17.6241193  96.5629257  91.7730540  17.4741193
  94.9529257  93.3030540  16.7141193  94.0729257  93.7430540  16.8741193
  95.7629257  93.7130540  15.5441193  96.6629257  93.1330540  15.7041193
  95.0529257  93.3930540  14.1741193  94.5529257  92.4130540  14.3241193
  95.7229257  93.2730540  13.3041193  93.9629257  94.3630540  13.8541193
  93.0929257  94.6830540  14.7041193  93.8329257  94.7530540  12.6441193
  96.2029257  95.1530540  15.6241193  97.1729257  95.4730540  14.9741193
  95.6829257  96.0430540  16.5341193  94.8029257  95.8030540  16.9441193
  96.1329257  97.4330540  16.7341193  97.1429257  97.4630540  16.3641193
  95.4729257  98.5430540  15.9241193  95.9329257  99.5330540  16.1741193
  95.5929257  98.2230540  14.4641193  95.0329257  97.3030540  14.1841193
  95.2029257  99.1530540  13.9941193  96.6529257  98.1230540  14.1441193
  93.9929257  98.7130540  16.3941193  93.9329257  98.8830540  17.4941193
  93.5929257  99.5430540  15.7641193  93.4129257  97.8030540  16.1541193
  96.1229257  97.7230540  18.2141193  95.2529257  97.2530540  18.9841193
  97.1629257  98.4430540  18.6341193  97.7929257  98.7430540  17.9141193
  97.5029257  98.7630540  19.9741193  96.7929257  98.3030540  20.6441193
  98.8729257  98.1830540  20.3241193  98.9029257  98.1230540  21.4341193
  99.7529257  98.6830540  19.8641193  98.9629257  96.6730540  19.8841193
  98.4229257  95.5430540  20.6841193  97.7329257  95.7830540  21.4841193
  98.5629257  94.2530540  20.2041193  98.1129257  93.4430540  20.7641193
  99.2529257  94.0430540  18.9741193  99.3729257  93.0730540  18.5141193
  99.7729257  96.3630540  18.7841193 100.3329257  97.1030540  18.2341193
  99.8729257  95.0730540  18.2841193 100.4029257  94.8830540  17.3641193
  97.6029257 100.2230540  20.2241193  97.7929257 101.0030540  19.2941193
  97.3329257 100.6530540  21.4841193  96.9829257 100.0430540  22.1941193
  97.6129257 102.0330540  21.9041193  97.0829257 102.6730540  21.2241193
  97.1629257 102.3730540  23.3241193  97.8229257 101.8230540  24.0241193
  96.2629257 101.7530540  23.4641193  96.9829257 103.8730540  23.6541193
  95.8129257 104.4830540  23.1941193  95.0729257 103.9730540  22.6041193
  95.5129257 105.7530540  23.6141193  94.5929257 106.2230540  23.2841193
  96.5029257 106.5630540  24.3041193  96.1929257 107.5230540  24.6641193
  97.9429257 104.6030540  24.3741193  98.8529257 104.1030540  24.6841193
  97.7229257 105.9730540  24.7041193  98.4429257 106.6330540  25.1541193
  99.1329257 102.3130540  21.7341193  99.9429257 101.4230540  22.0441193
  99.5829257 103.5030540  21.3641193  98.6929257 104.5230540  20.7641193
  98.0329257 104.1230540  19.9741193  98.0929257 105.0630540  21.5341193
 100.9729257 103.8730540  21.4841193 101.5429257 103.2330540  20.8441193
 100.7929257 105.3330540  21.0941193 101.7029257 105.7130540  20.5741193
 100.6529257 106.0230540  21.9541193  99.6129257 105.5230540  20.1741193
  99.8629257 105.3130540  19.1141193  99.1029257 106.5030540  20.1141193
 101.6429257 103.7530540  22.8741193 101.0529257 103.5830540  23.9341193
 102.9429257 103.7830540  22.9741193 103.4829257 103.8330540  22.1441193
 103.6129257 103.6030540  24.2441193 102.9829257 103.0230540  24.9041193
 104.9229257 102.8430540  24.1041193 105.6229257 103.1930540  23.3041193
 104.6429257 101.8130540  23.7841193 105.8529257 102.8030540  25.3541193
 105.2529257 102.3030540  26.1441193 106.1629257 103.8030540  25.7341193
 107.1729257 102.0730540  25.2241193 107.8329257 102.2830540  24.1841193
 107.6329257 101.3730540  26.1841193 103.7629257 105.0030540  24.8841193
 104.4229257 105.9330540  24.3341193 103.1229257 105.2630540  26.0641193
 102.6829257 104.4730540  26.4941193 103.0729257 106.6030540  26.6941193
 102.9029257 107.4130540  26.0041193 101.9529257 106.6130540  27.7341193
 102.0929257 105.8430540  28.5241193 102.0629257 108.0230540  28.3041193
 101.2229257 108.2930540  28.9641193 102.9629257 108.3530540  28.8641193
 101.8229257 108.6930540  27.4541193 100.5029257 106.2530540  27.1741193
 100.6829257 105.3430540  26.5641193 100.1329257 107.0230540  26.4641193
  99.4829257 106.0530540  28.2941193  98.5229257 105.6730540  27.8741193
  99.8729257 105.3230540  29.0341193  99.2629257 107.0130540  28.8141193
 104.5429257 107.0130540  27.1741193 105.2729257 106.3330540  27.7841193
 104.9929257 108.2530540  26.7241193 104.3129257 108.8830540  26.3641193
 106.2329257 108.8430540  27.2041193 107.0329257 108.1230540  27.3241193
 106.8029257 109.9830540  26.3141193 106.0029257 110.7530540  26.2841193
 106.9329257 109.5430540  25.2941193 108.1529257 110.5630540  26.8441193
 108.7529257 110.0130540  27.7841193 108.6429257 111.5930540  26.1141193
 108.0529257 111.9530540  25.3941193 109.6329257 111.5130540  26.0441193
 105.8129257 109.3830540  28.5741193 104.9929257 110.3030540  28.7441193
 106.5729257 108.8830540  29.5741193 107.2829257 108.2330540  29.3041193
 106.2629257 109.1730540  30.9341193 105.1929257 109.2630540  31.0841193
 106.9329257 107.9630540  31.7641193 108.0029257 107.9730540  31.4441193
 106.4029257 107.0830540  31.3541193 106.7229257 108.0630540  33.2941193
 105.8529257 108.6930540  33.5641193 107.5229257 108.7130540  33.7141193
 106.7929257 106.7430540  34.0641193 105.7429257 106.1030540  34.1341193
 107.8629257 106.4030540  34.6141193 106.9029257 110.4630540  31.3941193
 106.6429257 111.1430540  32.3841193 107.7729257 111.0130540  30.5441193
 107.8329257 110.6230540  29.6341193 108.2629257 112.3230540  30.6741193
 108.6229257 112.4630540  31.6841193 109.4229257 112.6230540  29.7041193
 109.6929257 113.6830540  29.9041193 109.2129257 112.6030540  28.6141193
 110.6029257 111.6330540  29.9341193 110.6829257 110.7830540  30.8341193
 111.7029257 111.7830540  29.1341193 111.7229257 112.4930540  28.4341193
 112.4229257 111.0930540  29.2641193 107.2129257 113.3530540  30.3641193
 107.2629257 114.4930540  30.8841193 106.2129257 112.9730540  29.5641193
 106.1129257 112.0630540  29.1641193 105.2329257 113.9630540  28.9841193
 105.7729257 114.8930540  28.8941193 104.9729257 113.6630540  27.4041193
 104.0629257 114.2730540  27.2041193 104.6629257 112.6030540  27.3341193
 106.1029257 114.0430540  26.4641193 106.9929257 113.5530540  26.9241193
 106.2629257 115.1330540  26.4241193 105.9029257 113.5330540  25.0541193
 106.6529257 112.5730540  24.6441193 105.0329257 114.0330540  24.4041193
 103.9229257 114.0230540  29.7741193 103.3829257 115.0830540  30.0641193
 103.5729257 112.8130540  30.2341193 104.1229257 112.0030540  30.0341193
 102.3329257 112.6230540  31.0241193 101.8929257 113.5530540  31.3241193
 101.0929257 111.9330540  30.2241193 100.0829257 111.9330540  30.6841193
 101.3929257 110.8730540  30.1141193 100.8229257 112.4430540  28.8241193
  99.7129257 113.2530540  28.5941193  99.1429257 113.5930540  29.4441193
  99.5129257 113.8730540  27.3041193  98.7129257 114.6030540  27.2941193
 100.3929257 113.5830540  26.3341193 100.3229257 114.3430540  25.1541193
 100.9029257 113.8930540  24.5441193 101.5329257 111.9430540  27.7141193
 102.3229257 111.2430540  27.9241193 101.3929257 112.5630540  26.4541193
 102.0929257 112.4130540  25.6441193 102.4529257 111.7530540  32.2741193
 102.9129257 110.5930540  32.1941193 102.1129257 112.2530540  33.4741193
 101.8129257 113.2030540  33.5241193 102.1629257 111.4830540  34.6741193
 102.8029257 110.6130540  34.5541193 102.6529257 112.2330540  35.9241193
 102.3429257 111.7230540  36.8641193 102.0729257 113.1830540  35.9641193
 104.2329257 112.4030540  35.8641193 104.4929257 113.0930540  35.0341193
 104.7529257 111.4330540  35.7441193 104.7529257 113.1230540  37.0741193
 104.5329257 114.3030540  37.3541193 105.3929257 112.3130540  37.9341193
 105.5929257 111.3830540  37.6441193 105.8529257 112.8130540  38.6741193
 100.7629257 110.9530540  34.7541193  99.7629257 111.5630540  34.3241193
 100.5929257 109.8130540  35.4741193 101.4129257 109.3130540  35.7541193
  99.2729257 109.4530540  36.1441193  98.5529257 109.5330540  35.3441193
  99.3629257 107.9730540  36.7141193 100.1829257 107.9930540  37.4641193
  97.9929257 107.5730540  37.3741193  97.9829257 106.4830540  37.6241193
  97.6929257 108.2130540  38.2241193  97.1929257 107.6530540  36.6141193
  99.5829257 106.8330540  35.6241193 100.1329257 107.2630540  34.7541193
  98.5829257 106.6130540  35.1941193 100.3029257 105.5730540  36.0241193
  99.7829257 105.1730540  36.9241193 100.2129257 104.8030540  35.2241193
 101.3629257 105.7430540  36.2941193  98.9729257 110.3530540  37.2441193
  99.8529257 110.4530540  38.1341193  97.7129257 110.8630540  37.3741193
  97.0829257 110.7430540  36.6141193  97.3429257 111.7430540  38.5341193
  98.1929257 111.9030540  39.1841193  96.7929257 112.9730540  37.9341193
  96.3729257 113.6930540  38.6741193  98.0829257 113.7830540  37.4841193
  97.9129257 114.8330540  37.1641193  98.8129257 113.8430540  38.3241193
  98.4829257 113.1530540  36.6541193  95.8229257 112.7930540  36.8241193
  95.2629257 111.8630540  37.0541193  96.4029257 112.7430540  35.8741193
  94.7729257 113.9830540  36.7541193  95.3429257 114.8830540  37.0641193
  94.3529257 114.1230540  35.7441193  93.8929257 113.7630540  37.3941193
  96.2329257 111.1830540  39.3541193  95.8829257 111.6730540  40.4441193
  95.5329257 110.1430540  38.8441193  95.8729257 109.6530540  38.0441193
  94.3529257 109.6830540  39.6041193  94.3929257 109.7630540  40.6741193
  93.1329257 110.5530540  39.0941193  92.1829257 110.1930540  39.5441193
  93.1729257 110.3930540  37.9941193  93.3129257 111.9230540  39.4041193
  94.2629257 112.0130540  39.3341193  94.1929257 108.2730540  39.1841193
  94.5129257 108.0130540  38.0341193  93.5729257 107.4530540  40.0141193
  93.2929257 107.7430540  40.9341193  93.0429257 106.1230540  39.5841193
  93.0429257 106.0930540  38.5041193  93.9429257 104.9030540  39.9541193
  93.6129257 103.9630540  39.4641193  95.3729257 105.2130540  39.3641193
  95.2229257 105.6430540  38.3441193  95.8429257 106.0130540  39.9841193
  95.9429257 104.2630540  39.3241193  94.0529257 104.6330540  41.5141193
  93.0129257 104.3930540  41.8141193  94.7429257 103.7930540  41.7141193
  94.5929257 105.5130540  41.9241193  91.6929257 106.0130540  40.2741193
  91.3329257 106.7330540  41.1941193  90.7829257 105.2230540  39.7341193
  90.9729257 104.6130540  38.9641193  89.5029257 104.9030540  40.3341193
  89.1929257 105.6430540  41.0641193  88.4429257 104.5530540  39.2641193
  88.5429257 105.3130540  38.4641193  87.3929257 104.5230540  39.6241193
  88.7329257 103.3130540  38.6541193  88.3229257 102.6430540  39.1941193
  89.5229257 103.6930540  41.2541193  90.5429257 103.0530540  41.4341193
  88.3629257 103.4630540  41.8741193  87.6329257 104.1330540  41.8741193
  87.8829257 102.1930540  42.5141193  88.7329257 102.0330540  43.1541193
  86.5929257 102.5130540  43.2441193  85.8229257 102.9330540  42.5541193
  86.9329257 103.3230540  43.9341193  86.1029257 101.3930540  44.0941193
  86.8229257 100.4630540  44.5141193  84.9529257 101.5230540  44.5541193
  87.8129257 101.1030540  41.4741193  87.6729257 101.4130540  40.2241193
  88.0229257  99.8730540  41.8641193  88.0429257  99.6930540  42.8441193
  88.1429257  98.6730540  40.9041193  88.4629257  99.0630540  39.9541193
  89.2329257  97.6730540  41.4541193  88.9029257  97.3830540  42.4741193
  89.4729257  96.4130540  40.6541193  89.9429257  96.6030540  39.6641193
  90.0929257  95.6830540  41.2041193  88.5029257  95.9430540  40.3641193
  90.6029257  98.4230540  41.5741193  90.8329257  98.8430540  40.5641193
  90.5629257  99.3230540  42.2241193  91.2629257  97.6630540  42.0441193
  86.8329257  98.0530540  40.7341193  86.0229257  97.9630540  41.6841193
  86.4929257  97.6330540  39.5241193  87.2229257  97.5830540  38.8341193
  85.1429257  97.2030540  39.2741193  84.5429257  97.0730540  40.1641193
  84.4929257  98.2030540  38.3141193  83.4329257  97.9330540  38.1241193
  85.1329257  98.3130540  37.4041193  84.3229257  99.5630540  39.0041193
  85.0129257 100.6330540  38.4741193  85.6029257 100.4530540  37.5941193
  84.7929257 101.9030540  38.9941193  85.2929257 102.7730540  38.5841193
  84.0329257 102.1130540  40.1341193  83.7729257 103.4930540  40.5741193
  84.5229257 103.9530540  40.1841193  83.4729257  99.7830540  40.1041193
  83.0829257  98.8930540  40.5741193  83.3429257 100.9830540  40.6841193
  82.7329257 101.1430540  41.5641193  85.1729257  95.8930540  38.5741193
  86.1829257  95.5530540  38.0241193  84.0829257  95.2030540  38.5341193
  83.2329257  95.5230540  38.9641193  84.0029257  94.0030540  37.6741193
  84.9329257  93.8930540  37.1441193  83.6629257  92.7830540  38.4541193
  82.9629257  93.0030540  39.2841193  84.8529257  92.3030540  39.0641193
  85.3229257  93.0130540  39.5141193  83.0829257  91.6530540  37.5941193
  83.8529257  91.4230540  36.8241193  82.8829257  90.7930540  38.2641193
  82.1329257  91.9530540  37.1041193  82.8129257  94.2830540  36.6741193
  81.7229257  94.7430540  37.1241193  83.0329257  94.1130540  35.3541193
  83.9029257  93.8630540  34.9341193  81.9429257  94.2330540  34.3841193
  80.9729257  94.0530540  34.8141193  81.8629257  95.6230540  33.7541193
  82.7829257  95.7630540  33.1441193  82.0129257  96.4430540  34.4941193
  80.6229257  95.6830540  33.1141193  80.0129257  95.5630540  33.8341193
  82.1429257  93.1330540  33.3341193  83.2829257  92.9130540  32.9141193
  81.0729257  92.4230540  33.0341193  80.1929257  92.6430540  33.4541193
  80.9529257  91.2430540  32.1741193  79.9729257  90.8130540  32.2941193
  81.2029257  91.8130540  30.7241193  81.3729257  90.9830540  30.0141193
  82.1029257  92.4430540  30.5941193  79.9629257  92.5630540  30.1741193
  79.4229257  92.1830540  29.1241193  79.4829257  93.6730540  30.7641193
  79.7929257  93.9030540  31.6941193  78.8929257  94.2630540  30.2241193
  81.9129257  90.0430540  32.5641193  82.3729257  89.3330540  31.6541193
  82.2729257  89.9630540  33.8941193  81.7529257  90.5330540  34.5241193
  83.2029257  88.9430540  34.4441193  83.0829257  89.1330540  35.5041193
  82.7929257  87.5230540  33.9841193  83.2629257  87.2830540  33.0041193
  81.6929257  87.5330540  33.8841193  83.1629257  86.2530540  34.8341193
  84.0529257  85.4030540  34.5541193  82.2529257  86.1030540  35.8241193
  81.6729257  86.9030540  35.9741193  82.3329257  85.3630540  36.4941193
  84.6929257  89.1430540  34.3441193  85.5329257  88.2530540  34.5541193
  85.1929257  90.4030540  34.2441193  84.4529257  91.0730540  34.1241193
  86.5929257  90.7930540  34.2441193  87.1729257  90.0330540  34.7341193
  87.2329257  91.2430540  32.9041193  87.0429257  90.4830540  32.1241193
  88.6129257  91.3730540  33.0141193  88.9929257  91.2230540  32.1441193
  86.6429257  92.4730540  32.2041193  86.8729257  92.4730540  31.1141193
  85.5329257  92.4230540  32.2941193  86.9129257  93.4430540  32.6741193
  86.6129257  92.0530540  35.1441193  85.6229257  92.8030540  35.3141193
  87.7929257  92.3730540  35.7141193  88.5929257  91.8030540  35.5441193
  88.1129257  93.5130540  36.4741193  87.2029257  93.8630540  36.9441193
  89.1229257  93.2630540  37.6741193  89.7529257  94.1630540  37.8041193
  89.9429257  92.1230540  37.4841193  90.7129257  92.3330540  38.0041193
  88.3229257  93.0030540  38.9041193  87.6929257  92.1030540  38.7441193
  89.0829257  92.8030540  39.6941193  87.7229257  93.8630540  39.2441193
  88.6029257  94.7030540  35.5741193  89.3429257  94.3530540  34.6141193
  88.4129257  95.9830540  35.9441193  87.8729257  96.1630540  36.7641193
  88.9529257  97.1330540  35.3441193  89.9929257  96.9730540  35.1341193
  88.2729257  97.4530540  33.9741193  88.5129257  96.6030540  33.3041193
  88.8629257  98.3230540  33.6041193  86.7529257  97.8330540  33.8941193
  86.4429257  97.9330540  32.8241193  85.7329257  96.9230540  34.6141193
  85.8729257  96.8930540  35.7141193  84.6929257  97.2830540  34.4641193
  85.7529257  95.8830540  34.2241193  86.5829257  99.2430540  34.4241193
  86.4529257  99.2230540  35.5341193  87.2729257 100.0230540  34.0541193
  85.5529257  99.6030540  34.1941193  88.9629257  98.2530540  36.3641193
  88.3529257  98.2830540  37.4041193  89.7729257  99.2530540  35.9941193
  90.1529257  99.3330540  35.0741193  89.6829257 100.5030540  36.7041193
  88.7029257 100.7130540  37.1041193  90.7129257 100.4830540  37.9241193
  90.5529257  99.5630540  38.5141193  90.4229257 101.4130540  38.4641193
  92.1229257 100.5130540  37.4441193  92.5429257 100.7530540  36.3041193
  92.9229257 100.2130540  38.3341193  89.9729257 101.5430540  35.6041193
  90.2729257 101.2230540  34.4441193  89.7629257 102.8730540  35.9641193
  89.6929257 103.0730540  36.9441193  89.7629257 104.0430540  35.1241193
  90.0529257 103.8130540  34.1041193  88.3129257 104.7330540  35.2841193
  88.2329257 105.7430540  34.8141193  88.0429257 104.7730540  36.3641193
  87.2129257 103.8130540  34.7141193  87.0629257 103.7830540  33.3341193
  87.8029257 104.3230540  32.7741193  86.0029257 103.0930540  32.7341193
  86.0029257 103.0130540  31.6541193  85.1329257 102.4230540  33.4941193
  84.3029257 101.9330540  33.0041193  86.3329257 103.0730540  35.5541193
  86.4929257 103.1030540  36.6241193  85.3029257 102.4030540  34.8841193
  84.6529257 101.8530540  35.5441193  90.8729257 104.8830540  35.7641193
  90.7429257 105.2730540  36.8841193  91.9729257 105.0830540  35.0141193
  92.1629257 104.5230540  34.2041193  93.0929257 105.9830540  35.4141193
  92.8629257 106.3230540  36.4141193  94.4229257 105.2730540  35.6341193
  95.1429257 105.8930540  36.2241193  94.1929257 104.0630540  36.5641193
  95.1429257 103.6430540  36.9541193  93.6129257 104.3630540  37.4541193
  93.6729257 103.3030540  35.9341193  95.0429257 104.8430540  34.2441193
  94.9429257 105.7030540  33.5541193  94.5929257 103.9430540  33.7741193
  96.4629257 104.4230540  34.5041193  97.0929257 105.1930540  34.9941193
  96.5329257 103.5930540  35.2341193  96.9429257 104.0330540  33.5841193
  93.1729257 107.2330540  34.5841193  92.6629257 107.2430540  33.4941193
  93.8829257 108.2330540  35.0741193  94.4229257 108.0830540  35.8941193
  93.9829257 109.4830540  34.3741193  93.7129257 109.3330540  33.3341193
  93.0529257 110.6130540  34.8941193  93.3929257 111.0530540  35.8541193
  93.0629257 111.7530540  33.8541193  92.7829257 111.4030540  32.8341193
  92.2829257 112.5130540  34.0741193  94.0329257 112.2430540  33.6341193
  91.6229257 110.1730540  35.2241193  91.5729257 109.1730540  35.7041193
  91.0529257 109.8430540  34.3241193  90.8529257 111.0430540  36.2941193
  90.7129257 112.1130540  36.0441193  89.8729257 110.5430540  36.3641193
  91.4129257 110.9930540  37.2541193  95.4029257 109.8630540  34.3441193
  96.0429257 109.9630540  35.3941193  95.9529257 110.1030540  33.1441193
  95.3029257 110.2030540  32.3941193  97.3029257 110.7830540  32.9441193
  97.8629257 110.6330540  33.8541193  97.9929257 110.2230540  31.7041193
  98.9429257 110.7930540  31.6241193  97.3529257 110.4130540  30.8141193
  98.3229257 108.7630540  31.7741193  97.4029257 107.7530540  31.4941193
  96.3729257 108.0830540  31.4841193  97.7429257 106.4430540  31.6341193
  97.1229257 105.5830540  31.4441193  99.1129257 106.0830540  31.7941193
  99.4329257 104.7930540  31.9941193 100.1029257 104.7930540  32.6841193
  99.7129257 108.4830540  31.9741193 100.4029257 109.2930540  32.1141193
 100.0829257 107.1430540  31.9141193 101.0429257 106.8730540  32.3241193
  97.0029257 112.3030540  32.7141193  95.9829257 112.6130540  32.0541193
  97.8729257 113.2730540  33.1241193  98.7429257 113.0430540  33.5441193
  97.5329257 114.6630540  33.0341193  96.9629257 114.9730540  32.1741193
  96.6229257 115.0830540  34.2741193  97.0229257 114.7030540  35.2341193
  95.5529257 114.8030540  34.1541193  96.5629257 116.6630540  34.6141193
  96.1229257 117.2930540  33.8041193  97.6129257 116.9730540  34.7441193
  95.7929257 117.0530540  35.8641193  94.8129257 116.5230540  35.8741193
  96.3129257 116.5330540  36.6841193  95.7229257 118.5830540  36.1041193
  95.1329257 119.0330540  35.2841193  96.7729257 118.9530540  36.1641193
  95.1029257 118.9630540  37.4141193  95.0629257 120.0030540  37.3841193
  94.1029257 118.6830540  37.4341193  95.4629257 118.5330540  38.2941193
  98.7329257 115.5830540  32.9541193  99.8029257 115.1430540  33.4241193
  98.6029257 116.7630540  32.3241193  97.7229257 116.8830540  31.8841193
  99.4229257 117.9530540  32.4741193 100.3529257 117.6730540  32.9341193
  99.5629257 118.5430540  31.0341193 100.0929257 119.5130540  31.1641193
  98.5629257 118.7730540  30.6141193 100.3029257 117.5930540  30.0541193
  99.7729257 116.6230540  30.1941193 101.3929257 117.5230540  30.2441193
 100.1029257 117.9230540  28.5541193  99.0529257 117.7130540  28.2541193
 100.1829257 119.0330540  28.5641193 101.1229257 117.1730540  27.6641193
 101.1829257 116.0730540  27.8441193 102.1029257 117.7030540  27.6941193
 100.7129257 117.2830540  26.1941193  99.7029257 117.0330540  26.1241193
 100.8629257 118.2330540  25.7841193 101.3129257 116.6230540  25.6741193
  98.6929257 119.0030540  33.5241193  97.4929257 119.3130540  33.5041193
  99.4929257 119.4630540  34.5041193 100.4629257 119.2930540  34.3741193
  99.1729257 120.1230540  35.7841193  98.8029257 119.3330540  36.4241193
 100.5129257 120.4330540  36.5141193 100.3929257 120.7730540  37.5641193
 101.2929257 121.3430540  35.7941193 100.8529257 122.1930540  35.6941193
 101.3529257 119.1130540  36.6141193 100.6829257 118.4130540  37.1541193
 101.7729257 118.6530540  35.6941193 102.2929257 119.2330540  37.1941193
  98.3029257 121.3330540  36.1341193  97.9129257 122.1630540  35.2741193
  97.9729257 121.4530540  37.4241193  98.3029257 120.7630540  38.0641193
  97.4229257 122.6930540  38.1041193  97.0429257 123.3630540  37.3541193
  98.4529257 123.2730540  39.0941193  98.8429257 122.4830540  39.7641193
  97.9829257 124.0030540  39.7741193  99.4629257 124.0230540  38.2841193
  99.3829257 124.0230540  37.0441193 100.6129257 124.4830540  38.8041193
 100.9129257 124.2630540  39.7341193 101.2629257 124.9330540  38.1841193
  96.1229257 122.2830540  38.9141193  95.8029257 121.0730540  38.8841193
  95.2229257 123.0730540  39.5841193  94.4029257 122.5130540  39.6241193
  95.0429257 124.4230540  40.2141193  95.9029257 124.5530540  40.8541193
  95.0529257 125.5430540  39.1141193  94.2429257 126.2730540  39.3441193
  94.8629257 125.0930540  38.1141193  96.3429257 126.3330540  39.0041193
  97.0929257 126.5330540  39.9441193  96.6729257 126.7530540  37.7741193
  95.9429257 126.7730540  37.0941193  97.4529257 127.3730540  37.7241193
  93.7529257 124.5130540  41.0441193  92.8429257 123.7230540  40.7841193
  93.4629257 125.5630540  41.8841193  94.2429257 126.1730540  41.9641193
  92.0629257 125.8330540  42.4341193  91.6129257 124.8630540  42.6041193
  91.2729257 126.6130540  41.3441193  91.6929257 127.6330540  41.2441193
  91.3629257 126.0930540  40.3641193  89.7729257 126.6930540  41.5741193
  89.1929257 127.6030540  40.9741193  89.1429257 125.8930540  42.3241193
  91.9929257 126.6030540  43.8241193  92.9129257 126.6530540  44.6341193
  90.8129257 127.2530540  44.1441193  90.0529257 127.1830540  43.5041193
  90.5929257 128.0130540  45.4041193  91.3729257 127.7030540  46.0941193
  90.9729257   5.9530540  45.1541193  91.2129257   6.3830540  46.1441193
  91.8829257   5.9930540  44.5341193  89.8829257   6.8230540  44.5541193
  88.9829257   6.2630540  43.8741193  90.0929257   8.0730540  44.6741193
  89.3129257 127.8230540  46.2041193  88.5629257 126.8630540  45.9241193
  89.0029257 128.7830540  47.1441193  89.7629257   5.8230540  47.3141193
  87.7929257   5.6630540  47.7941193  88.0329257   6.6630540  48.1041193
  86.7029257   6.0330540  46.8441193  85.9529257 128.8230540  46.6641193
  87.0429257   6.0230540  45.7841193  85.8929257   7.3330540  47.1741193
  85.5229257   7.8630540  46.2741193  86.5029257   8.1030540  47.6941193
  84.6829257   7.0930540  48.0241193  84.5029257   7.8430540  48.9841193
  83.7929257   6.2530540  47.6241193  87.2129257 128.5730540  49.0541193
  87.5829257 127.4930540  49.4941193  86.3829257   5.8030540  49.8141193
  86.1129257   6.6630540  49.3941193  85.5129257 129.0030540  51.0041193
  85.1629257   6.3530540  51.4341193  84.1829257 128.2330540  50.7541193
  84.5729257 127.3130540  50.2841193  83.5429257 128.8530540  50.0741193
  83.3329257 128.0230540  51.9941193  83.2329257 128.9830540  52.5341193
  83.8329257 127.2830540  52.6641193  81.8929257 127.4630540  51.7241193
  81.4229257 127.4430540  50.6041193  81.2929257 127.0930540  52.8141193
  86.1729257 128.3230540  52.2641193  86.1329257 127.1130540  52.5241193
  87.0229257 129.0130540  53.0841193  87.2829257   6.3530540  52.7941193
  87.7129257 128.5230540  54.2241193  87.2029257 127.6030540  54.4941193
  89.1929257 128.1530540  53.8441193  89.7529257 127.8330540  54.7441193
  89.5529257 129.0930540  53.3741193  89.2829257 126.9230540  52.8541193
  88.6929257 127.1930540  51.9541193  88.9829257 126.0330540  53.4341193
  90.6829257 126.6430540  52.3841193  91.2129257 125.4930540  52.5141193
  91.3429257 127.5730540  51.8241193  87.6729257   5.7530540  55.4941193
  88.0529257 128.7930540  56.5441193  87.1729257   7.0130540  55.5641193
  86.9329257   7.4130540  54.6841193  87.2029257   7.8130540  56.7841193
  88.2629257   7.9130540  56.9641193  86.6229257   9.2730540  56.5541193
  86.2929257   9.8130540  57.4741193  85.7429257   9.2030540  55.8841193
  87.5529257  10.3730540  56.0441193  88.7529257  10.1230540  55.5941193
  87.1129257  11.5530540  56.1541193  86.6629257   7.1730540  58.0941193
  87.3729257   7.1630540  59.0941193  85.3929257   6.5730540  58.1041193
  84.8929257   6.6030540  57.2341193  84.9129257   5.8130540  59.3041193
  85.1529257   6.3330540  60.2241193  83.4029257 129.0630540  59.1141193
  83.0829257 128.3730540  59.9341193  83.2629257 128.6530540  58.0941193
  82.3929257   6.5830540  59.3741193  82.7129257   7.6530540  59.9241193
  81.2129257   6.3530540  58.9741193  85.6829257 128.1430540  59.5641193
  85.7929257 127.6730540  60.6841193  86.1929257 127.4630540  58.5241193
  85.9729257 127.7230540  57.5841193  86.9429257 126.2630540  58.5741193
  86.4429257 125.5730540  59.2441193  86.9329257 125.6430540  57.1741193
  87.3529257 126.3530540  56.4241193  85.8729257 125.4330540  56.9041193
  87.7729257 124.4130540  57.0841193  87.4029257 123.1830540  57.7541193
  86.4029257 123.0630540  58.1441193  88.3429257 122.0730540  57.7041193
  87.9429257 121.1730540  58.1241193  89.6129257 122.2130540  57.0541193
  90.3629257 121.4430540  57.0241193  89.0829257 124.5030540  56.5241193
  89.4029257 125.4230540  56.0541193  89.9729257 123.4430540  56.5441193
  90.9229257 123.5930540  56.0541193  88.3629257 126.6330540  59.1541193
  88.8429257 126.0230540  60.0841193  88.9829257 127.7630540  58.7641193
  88.4729257 128.3730540  58.1641193  90.2829257 128.2330540  59.3541193
  90.9429257 127.4030540  59.1741193  90.7429257   5.9030540  58.6041193
  89.9629257   6.6530540  58.3341193  91.8429257   6.7630540  59.3741193
  92.7929257   6.1930540  59.4341193  92.1629257   7.6630540  58.8041193
  91.3829257   7.0430540  60.3441193  91.4429257 129.0130540  57.2541193
  90.7729257 128.3130540  56.7141193  91.7429257   6.2830540  56.6041193
  92.3129257 128.3930540  57.5441193  90.1329257 128.4430540  60.8341193
  90.9829257 127.9030540  61.5641193  89.0329257 129.0330540  61.3441193
  88.4929257   5.8830540  60.6241193  88.6429257 129.1730540  62.7741193
  89.4929257   6.1430540  63.1541193  87.3629257   6.4430540  62.9141193
  87.3129257   6.6430540  64.0041193  86.5429257   5.7830540  62.5641193
  87.3629257   7.7130540  62.2241193  88.5929257   8.4130540  62.0841193
  89.5329257   8.0530540  62.4741193  88.6529257   9.6930540  61.4641193
  89.6329257  10.1430540  61.4241193  87.5129257  10.2430540  60.8241193
  87.6029257  11.5530540  60.2641193  88.5229257  11.6930540  60.0041193
  86.2329257   8.3430540  61.6841193  85.2729257   7.8530540  61.6741193
  86.2929257   9.5230540  60.9541193  85.3829257   9.8530540  60.4641193
  88.6529257 127.8330540  63.5441193  89.3729257 127.7030540  64.4841193
  88.0529257 126.7930540  62.9541193  87.5129257 126.9130540  62.1241193
  87.9729257 125.4930540  63.5541193  87.9329257 125.5430540  64.6341193
  86.6929257 124.7030540  62.9641193  86.7629257 123.6530540  63.3141193
  86.7129257 124.7130540  61.8541193  85.3029257 125.2130540  63.3841193
  85.1929257 126.0230540  64.5841193  86.0229257 126.4630540  65.1141193
  83.8829257 126.3830540  64.9641193  83.8229257 126.9730540  65.8741193
  82.7829257 125.8830540  64.2741193  81.7929257 126.2230540  64.5541193
  84.2029257 124.7030540  62.7341193  84.3529257 124.0730540  61.8641193
  82.9129257 125.0130540  63.1941193  82.1229257 124.5430540  62.6341193
  89.2129257 124.6030540  63.3141193  89.2429257 123.5030540  63.8241193
  90.2729257 125.1030540  62.6741193  90.1929257 125.9630540  62.1741193
  91.5629257 124.4930540  62.5441193  91.6829257 123.6630540  63.2241193
  92.0129257 124.3530540  61.0341193  93.1029257 124.1930540  60.9541193
  91.7629257 125.2630540  60.4441193  91.2329257 123.2130540  60.5441193
  91.5329257 121.9930540  60.6841193  90.1329257 123.5230540  59.8341193
  89.6729257 124.4030540  60.0041193  89.6829257 122.7930540  59.3241193
  92.6229257 125.3730540  63.2641193  93.7929257 125.3330540  62.9341193
  92.2029257 126.2630540  64.1341193  91.2629257 126.4830540  64.3741193
  93.1629257 126.9530540  64.9241193  93.8229257 127.5430540  64.2941193
  92.5029257 127.8530540  65.8541193  91.6929257 128.4030540  65.3341193
  93.2729257 128.5630540  66.2441193  91.7029257 127.2530540  67.0541193
  90.6229257 126.3830540  66.9241193  90.3429257 126.0030540  65.9441193
  89.9829257 125.9530540  68.0641193  89.2429257 125.1630540  67.9941193
  90.3229257 126.4930540  69.2941193  89.7129257 126.2830540  70.1641193
  92.0529257 127.8230540  68.2641193  92.9029257 128.5030540  68.2241193
  91.4129257 127.3730540  69.3941193  91.8829257 127.6630540  70.3241193
  94.1429257 126.0930540  65.7141193  95.2929257 126.4730540  65.9141193
  93.7829257 124.9130540  66.1841193  92.9429257 124.4330540  65.9641193
  94.5029257 124.2930540  67.1341193  95.4029257 124.8530540  67.3741193
  93.7029257 124.1430540  68.4341193  92.8529257 123.4930540  68.1041193
  93.2229257 125.1130540  68.6741193  94.5029257 123.6030540  69.6541193
  95.1029257 124.3430540  70.4241193  94.3129257 122.2530540  69.9241193
  93.8229257 121.6630540  69.2841193  94.7329257 121.9030540  70.7641193
  95.1529257 122.9830540  66.6141193  94.6729257 121.9030540  66.8841193
  96.1129257 123.1230540  65.7041193  96.3729257 124.0730540  65.5441193
  96.8329257 122.0130540  65.0141193  96.6029257 121.0830540  65.5241193
  96.4829257 121.9130540  63.4441193  97.1829257 121.1430540  63.0741193
  96.8629257 122.7130540  62.7741193  95.0529257 121.4630540  63.1541193
  94.7029257 121.6030540  62.1141193  94.3429257 122.0330540  63.7941193
  94.8029257 119.9830540  63.5041193  95.3529257 119.2630540  62.8541193
  95.2129257 119.9230540  64.5341193  93.3229257 119.5030540  63.3941193
  93.0329257 119.3530540  62.3341193  92.6829257 120.3130540  63.8141193
  93.0529257 118.2230540  64.0941193  93.7429257 118.0530540  64.8541193
  92.0529257 118.1830540  64.3841193  93.2029257 117.5030540  63.3541193
  98.3029257 122.3130540  65.2041193  98.8029257 123.4230540  65.2841193
  99.0429257 121.2430540  65.2541193  98.4929257 120.4230540  65.1141193
 100.5829257 121.2530540  65.1941193 100.9029257 121.8730540  66.0241193
 101.1929257 119.8430540  65.4241193 102.1929257 119.6730540  64.9641193
 100.5029257 119.0630540  65.0341193 101.6029257 119.5230540  66.9241193
 102.2529257 120.3030540  67.3941193 102.2229257 118.6030540  66.9141193
 100.4529257 119.3030540  67.8741193 100.4529257 119.8130540  68.9641193
  99.6429257 118.4930540  67.4541193 101.0929257 121.9230540  63.9541193
 100.5429257 121.8030540  62.8741193 102.2229257 122.7030540  64.1241193
 102.6329257 122.8230540  65.0241193 103.0729257 123.0330540  62.9141193
 102.4629257 123.5130540  62.1441193 104.2329257 124.0830540  63.3141193
 104.9129257 123.6730540  64.0941193 103.7229257 125.0430540  63.5541193
 105.1229257 124.4630540  62.0841193 104.6929257 125.0230540  61.2241193
 105.6729257 123.5930540  61.6541193 106.2429257 125.3530540  62.5841193
 106.6929257 125.8730540  61.7041193 105.9029257 126.1330540  63.3041193
 107.3629257 124.7330540  63.3541193 107.6329257 123.7630540  62.8941193
 107.0929257 124.6230540  64.4241193 108.5629257 125.6030540  63.2941193
 108.8729257 125.8430540  62.3341193 108.3529257 126.5230540  63.7241193
 109.3629257 125.1130540  63.7541193 103.6729257 121.7930540  62.2341193
 103.4829257 121.4830540  61.0941193 104.2729257 120.9230540  63.0841193
 104.2029257 121.1230540  64.0541193 105.0929257 119.8330540  62.6541193
 105.1829257 119.8830540  61.5741193 106.4929257 120.0030540  63.1341193
 106.5129257 120.0830540  64.2441193 106.7729257 120.9730540  62.6841193
 107.4629257 118.8630540  62.7541193 107.5029257 118.7930540  61.6441193
 107.1729257 117.8930540  63.2241193 108.8029257 119.2130540  63.3241193
 109.4729257 118.2230540  63.7941193 109.1529257 120.4430540  63.4941193
 104.5829257 118.4230540  63.0541193 104.3629257 118.1530540  64.2941193
 104.3729257 117.5130540  62.1641193 104.6529257 117.7230540  61.2241193
 103.9629257 116.2030540  62.3441193 103.1429257 116.2730540  63.0441193
 103.3929257 115.5830540  61.1541193 103.4329257 114.4730540  61.0941193
 103.9129257 115.9530540  60.2441193 101.9029257 115.8730540  61.0241193
 101.7029257 116.9630540  61.1441193 101.2929257 115.2430540  61.6941193
 101.3729257 115.4930540  59.6441193 101.4729257 116.3130540  58.7241193
 100.8129257 114.3730540  59.5541193 105.1329257 115.4130540  62.8941193
 106.2929257 115.5430540  62.5041193 104.9229257 114.5330540  63.8941193
 103.9829257 114.4230540  64.2041193 106.0129257 114.0830540  64.7941193
 106.4929257 115.0030540  65.0941193 105.3529257 113.2530540  65.8941193
 104.7729257 113.9530540  66.5141193 106.0229257 112.9330540  66.7141193
 104.4029257 112.1330540  65.4141193 105.0429257 111.4130540  64.8641193
 103.6329257 112.5730540  64.7441193 103.5929257 111.4230540  66.5541193
 103.2329257 112.2830540  67.1641193 102.7529257 110.8030540  66.1641193
 104.3329257 110.4530540  67.4941193 105.0229257 109.7730540  66.9541193
 103.6229257 109.8330540  68.0741193 105.1629257 111.2730540  68.4441193
 106.0229257 111.5830540  67.9441193 104.7229257 112.1630540  68.7241193
 105.3529257 110.7730540  69.3441193 107.1329257 113.2130540  64.1741193
 108.2729257 113.1730540  64.6541193 106.9829257 112.5030540  63.0141193
 106.0629257 112.3630540  62.6541193 108.0529257 111.7730540  62.3241193
 108.8929257 111.6830540  62.9941193 107.5929257 110.3530540  61.9941193
 108.3329257 109.9330540  61.2841193 106.6529257 110.3930540  61.4141193
 107.3229257 109.4830540  63.2241193 107.2429257 110.0430540  64.2841193
 107.2029257 108.1630540  63.1041193 107.2529257 107.7430540  62.1941193
 107.0129257 107.6430540  63.9341193 108.3329257 112.5130540  60.9841193
 109.0929257 111.9830540  60.1641193 107.7629257 113.6730540  60.6441193
 107.0929257 114.1330540  61.2341193 107.8829257 114.4630540  59.3641193
 107.6729257 113.7130540  58.6141193 107.0929257 115.7430540  59.5141193
 107.5929257 116.4530540  60.2141193 106.0029257 115.6830540  59.7541193
 106.9929257 116.5130540  58.2241193 106.4029257 115.9130540  57.4941193
 107.9629257 116.8330540  57.7941193 106.1229257 117.7730540  58.3041193
 105.2729257 117.4830540  58.9641193 106.7829257 118.4830540  58.8541193
 105.5029257 118.3030540  57.0741193 105.0129257 117.4630540  56.5441193
 106.3329257 118.6630540  56.4241193 104.6129257 119.4130540  57.3841193
 104.9429257 120.2730540  57.8641193 104.2929257 119.7630540  56.4641193
 103.7929257 119.0130540  57.8941193 109.3129257 114.8230540  59.1041193
 109.7529257 114.8230540  57.9241193 110.1029257 115.1730540  60.1041193
 109.7929257 115.2930540  61.0541193 111.4229257 115.6430540  59.7941193
 111.5229257 116.1430540  58.8441193 111.8529257 116.7330540  60.8541193
 112.9429257 116.9530540  60.7641193 111.6629257 116.4830540  61.9141193
 111.1029257 118.0430540  60.4741193 110.1329257 118.0830540  59.7741193
 111.5429257 119.1630540  61.0641193 112.2729257 119.1330540  61.7441193
 111.1029257 120.0130540  60.8041193 112.4229257 114.5230540  59.7741193
 113.6229257 114.7330540  59.5241193 111.9029257 113.2830540  60.0541193
 110.9329257 113.2930540  60.2841193 112.7729257 112.1130540  60.1641193
 113.7429257 112.4630540  59.8641193 112.8429257 111.5130540  61.6141193
 113.2829257 112.2230540  62.3341193 113.4629257 110.5830540  61.5741193
 111.5429257 111.1230540  62.0741193 111.0629257 111.9430540  62.2341193
 112.5629257 111.0530540  59.1341193 113.5229257 110.4930540  58.6541193
 111.2929257 110.8730540  58.6941193 110.6229257 111.3930540  59.2241193
 110.7929257 110.2430540  57.4441193 111.6329257 109.8030540  56.9241193
 109.8829257 109.0430540  57.6141193 108.9629257 109.3430540  58.1741193
 109.6229257 108.4430540  56.2141193 108.9329257 107.5730540  56.2641193
 109.1129257 109.1630540  55.5341193 110.5729257 108.0430540  55.8041193
 110.6829257 108.0130540  58.4941193 111.0829257 108.4630540  59.4341193
 111.5729257 107.6230540  57.9541193 109.8029257 106.8330540  58.9341193
 108.9429257 107.1630540  59.5541193 109.3929257 106.3630540  58.0041193
 110.4129257 106.1130540  59.5041193 110.0829257 111.3230540  56.6341193
 109.1029257 111.9030540  57.0741193 110.6229257 111.5530540  55.4941193
 111.3729257 110.9830540  55.1441193 110.4529257 112.8030540  54.7541193
 110.2329257 113.5530540  55.5041193 111.8129257 113.1230540  54.1341193
 111.6929257 114.1430540  53.6941193 112.0729257 112.3530540  53.3741193
 114.2629257 112.8930540  54.7141193 112.9429257 113.2530540  55.0841193
 115.0329257 113.3630540  55.6941193 116.1129257 113.2630540  55.6641193
 114.3129257 113.9030540  56.6941193 114.5829257 114.1430540  57.6241193
 112.9829257 113.7930540  56.3241193 112.2129257 114.2830540  56.9241193
 109.3729257 112.7530540  53.7041193 109.5329257 111.9230540  52.8441193
 108.3529257 113.6030540  53.7041193 107.9329257 114.3130540  54.8841193
 107.8829257 113.7630540  55.8441193 108.5729257 115.1830540  55.1341193
 107.3629257 113.6930540  52.6441193 106.8029257 112.7730540  52.7341193
 106.6329257 114.9530540  52.9941193 105.5629257 114.9930540  52.7241193
 107.1629257 115.8930540  52.7241193 106.5729257 114.8330540  54.5241193
 105.8129257 114.1130540  54.8641193 106.2929257 115.7530540  55.0741193
 107.8429257 113.6630540  51.1341193 107.1129257 113.0430540  50.3141193
 109.0729257 114.1630540  50.7641193 109.5829257 114.4930540  51.5541193
 109.5429257 114.0830540  49.3841193 108.7429257 114.0930540  48.6641193
 110.5629257 115.2830540  49.0541193 110.0629257 116.2730540  49.1541193
 110.7429257 115.3130540  47.9641193 111.9429257 115.2330540  49.7341193
 112.9829257 114.9230540  49.1441193 111.9729257 115.6830540  50.9741193
 111.1329257 115.9630540  51.4541193 112.9029257 115.6530540  51.3341193
 110.2429257 112.7330540  49.1141193 110.8329257 112.6030540  48.0541193
 110.1929257 111.7330540  50.0241193 110.0029257 111.7330540  51.0041193
 110.5929257 110.3730540  49.7041193 111.2229257 110.3430540  48.8241193
 111.2929257 109.6930540  50.8341193 111.6029257 108.6530540  50.5741193
 110.6929257 109.6930540  51.7741193 112.7129257 110.1930540  51.2741193
 113.3429257 110.8630540  50.4441193 113.1129257 109.7530540  52.4041193
 109.2829257 109.5830540  49.2241193 109.2229257 108.4330540  48.8941193
 108.1329257 110.3230540  49.0741193 108.1629257 111.3130540  49.1841193
 106.7929257 109.9230540  48.7241193 106.7129257 108.9030540  48.3641193
 105.7929257 109.9130540  49.9541193 104.8329257 109.4830540  49.5941193
 105.6429257 110.9630540  50.2741193 106.3929257 109.0230540  50.9641193
 106.2929257 107.5930540  50.7741193 106.0629257 107.2330540  49.7741193
 106.5429257 106.7630540  51.8241193 106.4129257 105.6830540  51.7741193
 106.8829257 107.2730540  53.0341193 107.1129257 106.6430540  53.8841193
 106.8629257 109.5030540  52.1741193 107.2329257 110.5030540  52.3041193
 107.1029257 108.6430540  53.2641193 107.6329257 108.9830540  54.1341193
 106.3629257 110.8430540  47.6341193 105.1729257 111.2330540  47.6741193
 107.2429257 111.3330540  46.7041193 108.1829257 111.0130540  46.7641193
 106.8729257 112.1930540  45.5741193 106.6429257 113.1530540  46.0141193
 107.9729257 112.3830540  44.5141193 107.6029257 113.0330540  43.6941193
 108.1829257 111.4930540  43.8941193 109.1529257 113.0630540  45.1641193
 109.5329257 112.5430540  46.0741193 108.7529257 114.0130540  45.5741193
 110.2529257 113.4730540  44.2141193 110.3529257 113.0030540  43.0841193
 111.1629257 114.3430540  44.7641193 110.9329257 114.7030540  45.6741193
 111.9529257 114.7130540  44.2941193 105.6329257 111.7630540  44.8141193
 104.6729257 112.5030540  44.6541193 105.7229257 110.5130540  44.2241193
 106.4929257 109.9930540  44.5941193 104.7329257 109.8630540  43.3941193
 104.4129257 110.5930540  42.6641193 105.1129257 108.4730540  42.7441193
 105.2629257 107.7930540  43.6141193 103.9229257 107.9330540  41.8941193
 103.7029257 108.4630540  40.9441193 104.2229257 106.9230540  41.5341193
 102.9629257 107.9730540  42.4441193 106.5229257 108.6330540  41.9841193
 106.8429257 107.6430540  41.5941193 107.3229257 108.8930540  42.7141193
 106.5629257 109.6330540  40.8041193 105.6529257 109.5630540  40.1641193
 106.6729257 110.6330540  41.2741193 107.4629257 109.4630540  40.1741193
 103.5329257 109.7430540  44.1841193 102.4029257 110.0030540  43.7341193
 103.6229257 109.3530540  45.4641193 104.4329257 108.9830540  45.9041193
 102.4329257 109.1430540  46.2541193 101.8229257 108.4930540  45.6441193
 102.9429257 108.2830540  47.4741193 103.8029257 108.7330540  48.0141193
 103.2029257 107.2630540  47.1241193 101.9629257 108.1530540  48.5941193
 102.0429257 109.1030540  49.6241193 102.8229257 109.8430540  49.6841193
 101.0629257 109.0330540  50.6141193 101.0329257 109.8230540  51.3441193
 100.1529257 107.9730540  50.7941193  99.2329257 107.8230540  51.8841193
  98.6129257 107.1130540  51.6941193 101.0929257 107.0630540  48.7741193
 101.2329257 106.3430540  47.9841193 100.1929257 106.9530540  49.7741193
  99.5329257 106.1030540  49.8041193 101.6829257 110.4030540  46.6141193
 100.4729257 110.4830540  46.8641193 102.3929257 111.5530540  46.6841193
 103.3929257 111.5830540  46.7341193 101.9029257 112.8230540  47.0241193
 100.8929257 112.7130540  47.3841193 102.9029257 113.6730540  47.8641193
 102.5729257 114.7330540  47.8341193 103.8929257 113.6430540  47.3541193
 102.8229257 113.1230540  49.2641193 101.8529257 112.4330540  49.6941193
 103.9229257 113.3330540  50.0641193 104.7129257 113.8430540  49.7341193
 103.7229257 113.2230540  51.0441193 101.5929257 113.5930540  45.7041193
 101.2329257 114.7730540  45.7041193 101.6729257 112.9030540  44.5041193
 102.1629257 112.0330540  44.4941193 101.4129257 113.5030540  43.2041193
 101.5829257 114.5630540  43.2641193 102.3929257 112.9030540  42.1841193
 103.4629257 112.8430540  42.4541193 102.3929257 113.5630540  41.2941193
 102.1129257 111.5730540  41.6841193 102.0729257 110.9930540  42.4441193
  99.9729257 113.2230540  42.6841193  99.5429257 113.7330540  41.6641193
  99.2729257 112.4030540  43.4541193  99.4929257 112.0330540  44.3541193
  98.0529257 111.8230540  42.9741193  97.9629257 112.0130540  41.9141193
  98.0029257 110.2930540  43.2041193  97.0929257 109.8930540  42.7041193
  97.9629257 110.1430540  44.3141193  99.0629257 109.4430540  42.5641193
 100.0829257 109.8930540  42.5441193  99.2929257 108.0430540  43.2141193
  99.6429257 108.2330540  44.2441193  98.4529257 107.3230540  43.2041193
 100.1329257 107.5330540  42.7041193  98.8229257 109.1630540  41.0741193
  97.8329257 108.7730540  40.7441193  98.8229257 110.0830540  40.4541193
  99.5129257 108.4330540  40.5941193  96.9729257 112.6730540  43.6241193
  96.8929257 112.6830540  44.8041193  96.0929257 113.2830540  42.7641193
  96.2929257 113.2830540  41.7941193  94.8729257 113.9730540  43.1841193
  95.1629257 114.7330540  43.8841193  94.4129257 114.8230540  41.9441193
  94.1829257 114.1730540  41.0641193  95.2429257 115.4930540  41.6341193
  93.1529257 115.6830540  42.1241193  92.2329257 115.1230540  42.4041193
  93.0429257 116.0130540  41.0741193  93.3529257 116.7830540  43.0541193
  92.9129257 116.6030540  44.0641193  94.4529257 116.9430540  43.1941193
  92.8329257 118.1330540  42.6441193  91.7629257 117.9430540  42.4041193
  93.3629257 118.5230540  41.7541193  93.0929257 119.0630540  43.7441193
  92.7729257 118.8530540  44.7141193  94.1229257 119.1830540  43.8641193
  92.7029257 120.0130540  43.5941193  93.7629257 113.0730540  43.9241193
  93.4529257 113.2630540  45.0741193  93.3429257 111.9730540  43.3041193
  93.6829257 111.7130540  42.4041193  92.2929257 111.1330540  43.8241193
  91.9829257 111.2830540  44.8441193  91.1029257 111.0530540  42.8941193
  90.3929257 110.2630540  43.2441193  91.4029257 110.7030540  41.8841193
  90.4429257 112.3830540  42.6241193  90.1529257 113.2230540  43.7441193
  90.3829257 112.8630540  44.7341193  89.6929257 114.5130540  43.5541193
  89.5729257 115.2730540  44.3141193  89.4429257 114.9730540  42.2341193
  88.9929257 116.3230540  41.9541193  88.6529257 116.7330540  42.7541193
  90.2429257 112.8630540  41.3441193  90.5629257 112.2830540  40.4941193
  89.7829257 114.1630540  41.1441193  89.7329257 114.6230540  40.1741193
  92.9029257 109.7730540  43.9241193  93.4029257 109.1930540  42.9741193
  92.9929257 109.1730540  45.1741193  92.4629257 109.4930540  45.9541193
  93.6929257 107.8530540  45.3241193  93.9429257 107.5530540  44.3141193
  94.9329257 107.9730540  46.3241193  95.0829257 106.9230540  46.6441193
  94.6529257 108.4930540  47.2641193  96.1829257 108.5930540  45.7141193
  95.9729257 109.4730540  45.0741193  96.5329257 107.8030540  45.0041193
  97.2229257 108.8730540  46.8141193  97.1229257 108.1830540  47.6741193
  98.2429257 108.8030540  46.3841193  97.2429257 110.2930540  47.4541193
  96.2829257 110.5430540  47.9541193  97.3429257 110.9930540  46.6041193
  98.3529257 110.5830540  48.4341193  98.3629257 111.6030540  48.6441193
  98.0729257 110.0530540  49.2841193  99.2329257 110.2730540  48.0041193
  92.6829257 106.7730540  45.7141193  92.6329257 106.2330540  46.8441193
  91.6729257 106.5430540  44.7741193  91.7229257 107.0630540  43.9241193
  90.5229257 105.8330540  45.1141193  90.3629257 105.9730540  46.1741193
  89.3129257 106.3130540  44.3041193  88.3929257 105.7730540  44.6341193
  89.3829257 106.0030540  43.2341193  88.9029257 107.7530540  44.4541193
  89.0529257 108.5130540  45.6141193  89.5029257 108.0830540  46.4941193
  88.5429257 109.8230540  45.6641193  88.6529257 110.3530540  46.5941193
  87.8529257 110.3530540  44.5441193  87.4229257 111.7330540  44.6441193
  87.2229257 112.0930540  43.7741193  88.2129257 108.2930540  43.2941193
  88.0429257 107.7130540  42.4041193  87.7229257 109.6030540  43.3841193
  87.2729257 110.0830540  42.5241193  90.6129257 104.3530540  44.8841193
  89.6529257 103.6830540  45.1341193  91.7329257 103.7530540  44.4341193
  92.4429257 104.2930540  43.9941193  91.8029257 102.2930540  44.4441193
  90.9429257 101.9330540  43.8941193  93.0229257 101.9430540  43.5541193
  93.9529257 102.4530540  43.9141193  92.8829257 102.3630540  42.5341193
  93.7729257  99.5830540  44.2941193  93.3629257 100.4530540  43.2541193
  94.0829257  98.4330540  43.7541193  94.4829257  97.5530540  44.2441193
  93.9029257  98.5330540  42.3741193  94.3429257  98.0130540  41.6541193
  93.4829257  99.8330540  42.0741193  93.4829257 100.1930540  41.0541193
  91.8229257 101.6830540  45.9041193  92.4129257 102.3230540  46.7541193
  91.2029257 100.5830540  46.2441193  90.4929257  99.7030540  45.3341193
  90.0529257 100.2730540  44.4841193  91.3129257  99.0430540  44.9841193
  91.2229257  99.9730540  47.5841193  90.9029257 100.7130540  48.2941193
  90.1629257  98.7830540  47.4741193  89.4629257  98.8330540  48.3341193
  90.6929257  97.8030540  47.5041193  89.4629257  99.0430540  46.1741193
  88.5929257  99.7330540  46.2541193  89.0029257  98.1030540  45.7941193
  92.5829257  99.5330540  48.1041193  92.7429257  99.3630540  49.3141193
  93.6729257  99.3530540  47.2841193  93.4929257  99.2530540  46.3141193
  95.0629257  99.2030540  47.6941193  95.1429257  98.4330540  48.4441193
  96.0129257  98.6530540  46.5441193  96.0629257  99.4530540  45.7741193
  95.5929257  97.7830540  45.9941193  97.4529257  98.3330540  46.9341193
  97.6029257  97.8430540  47.9141193  97.9629257  99.3230540  46.8941193
  98.1829257  97.4030540  45.9741193  97.6429257  97.0330540  44.9341193
  99.3429257  97.0530540  46.2541193  95.5829257 100.4030540  48.4541193
  96.3829257 100.2230540  49.3741193  95.1229257 101.6530540  48.0241193
  94.4929257 101.8530540  47.2841193  95.4529257 102.8930540  48.7941193
  96.5229257 102.9030540  48.9141193  95.0529257 104.2130540  47.9741193
  95.0629257 105.1130540  48.6341193  94.0429257 104.0530540  47.5341193
  96.0529257 104.5030540  46.8741193  97.3129257 104.9930540  47.1841193
  97.5329257 105.3830540  48.1641193  98.2929257 105.0730540  46.1941193
  99.2629257 105.4730540  46.4541193  98.0029257 104.7330540  44.8841193
  98.9829257 104.8830540  43.8441193  99.8629257 104.8930540  44.2241193
  95.6829257 104.2030540  45.5241193  94.6629257 103.9330540  45.2841193
  96.6829257 104.2930540  44.5241193  96.4429257 104.1130540  43.4841193
  94.9429257 102.8730540  50.2141193  95.4829257 103.6030540  51.0441193
  93.9129257 101.9830540  50.5741193  93.4329257 101.4330540  49.8941193
  93.5029257 101.7730540  51.9341193  93.2229257 102.7230540  52.3441193
  92.2429257 100.8630540  52.1141193  91.9629257 100.8330540  53.1941193
  92.3529257  99.8830540  51.6241193  90.9829257 101.4430540  51.4241193
  91.1029257 101.7430540  50.3641193  90.5729257 102.2630540  52.0341193
  89.8329257 100.4130540  51.4741193  89.6829257  99.7130540  52.4441193
  88.9329257 100.3830540  50.4941193  88.9929257 100.9830540  49.7041193
  88.3129257  99.5930540  50.5241193  94.6529257 101.2530540  52.8441193
  94.8229257 101.7930540  53.9041193  95.4129257 100.2730540  52.4241193
  95.1929257  99.8330540  51.5541193  96.5629257  99.6830540  53.0541193
  96.4029257  99.5630540  54.1141193  96.8129257  98.2630540  52.4241193
  96.6329257  98.2130540  51.3341193  95.9829257  97.6430540  52.8441193
  98.2729257  97.7730540  52.6241193  98.6529257  97.3630540  53.9041193
  98.0729257  97.4630540  54.8141193  99.9029257  96.7630540  54.0441193
 100.0729257  96.4030540  55.0541193 100.7529257  96.5730540  52.9841193
 102.0529257  96.1830540  53.2541193 102.0429257  95.7930540  54.1341193
  99.2229257  97.7830540  51.5741193  98.8529257  98.0530540  50.5941193
 100.4629257  97.1230540  51.7841193 101.3029257  97.0830540  51.0941193
  97.6829257 100.6630540  53.0041193  98.2129257 100.9830540  54.0041193
  97.9129257 101.2530540  51.7941193  97.4629257 100.8930540  50.9841193
  99.0129257 102.1630540  51.6141193  99.8729257 101.6730540  52.0241193
  99.1429257 102.3730540  50.0341193  99.7529257 103.2930540  49.8641193
  98.1529257 102.6830540  49.6441193  99.6529257 101.1530540  49.2941193
  99.1229257 100.2130540  49.5541193  99.6429257 101.4630540  47.8141193
  99.9929257 100.6330540  47.1641193  98.5829257 101.6830540  47.5641193
 100.2629257 102.3530540  47.5841193 101.1129257 100.8630540  49.7041193
 101.3329257 100.9630540  50.7941193 101.4229257  99.8230540  49.4841193
 101.8129257 101.4430540  49.0641193  98.9929257 103.4630540  52.4441193
 100.0029257 103.8930540  52.9841193  97.8429257 104.1330540  52.5941193
  97.0529257 103.8230540  52.0641193  97.4829257 105.1830540  53.5041193
  98.1029257 106.0330540  53.2441193  96.0829257 105.6830540  53.2641193
  95.7429257 106.4530540  53.9941193  95.4229257 104.7930540  53.3741193
  95.9029257 106.4030540  51.9641193  96.8329257 106.8230540  51.2741193
  94.6429257 106.5030540  51.5241193  93.8929257 106.2230540  52.1241193
  94.5229257 106.9530540  50.6441193  97.7129257 104.9030540  55.0141193
  98.3129257 105.7230540  55.6941193  97.3229257 103.6930540  55.5341193
  96.8329257 102.9630540  55.0541193  97.6829257 103.1930540  56.9141193
  97.2329257 103.8730540  57.6241193  96.9529257 101.8630540  57.1941193
  97.0829257 101.0530540  56.4541193  97.5729257 101.0930540  58.3841193
  97.0129257 100.1630540  58.5941193  98.5629257 100.8230540  57.9641193
  97.6929257 101.6630540  59.3341193  95.4029257 102.1530540  57.2541193
  95.1229257 102.4730540  56.2341193  95.1529257 102.8930540  58.0541193
  94.6329257 100.8930540  57.6441193  93.5429257 101.1030540  57.7741193
  94.7929257 100.1130540  56.8741193  94.9529257 100.5530540  58.6541193
  99.1929257 103.2630540  57.2041193  99.6529257 103.7930540  58.1641193
 100.0329257 102.7630540  56.2041193  99.5429257 102.3330540  55.4441193
 101.4929257 102.8030540  56.2341193 101.7029257 102.1330540  57.0541193
 102.1229257 102.2430540  54.9541193 101.8029257 102.8530540  54.0841193
 103.6729257 102.3030540  55.0441193 104.1729257 101.7130540  54.2441193
 103.9829257 103.3730540  55.0841193 104.0329257 101.7730540  55.9541193
 101.6229257 100.8430540  54.4541193 101.9229257 100.5030540  53.4441193
 100.5229257 100.9530540  54.3941193 101.8129257  99.7030540  55.4741193
 101.6029257  99.9530540  56.5341193 101.0929257  98.9130540  55.1741193
 102.8129257  99.2330540  55.3941193 101.9929257 104.3230540  56.3141193
 102.7929257 104.6330540  57.1441193 101.4929257 105.2530540  55.5541193
 100.8029257 105.0330540  54.8641193 101.8229257 106.6530540  55.5641193
 102.9029257 106.6330540  55.5641193 101.1929257 107.3330540  54.3841193
 100.0829257 107.3230540  54.4341193 101.5129257 106.7630540  53.4841193
 101.5729257 108.7330540  54.1841193 102.7829257 108.9130540  53.4441193
 103.2929257 108.0730540  53.0141193 103.3129257 110.1730540  53.2441193
 104.2929257 110.2430540  52.7841193 102.7429257 111.2830540  53.8041193
 103.2929257 112.5630540  53.6941193 103.3829257 112.9830540  54.5541193
 101.0229257 109.8330540  54.8641193 100.1829257 109.7230540  55.5341193
 101.6429257 111.1230540  54.6841193 101.1929257 111.9630540  55.1741193
 101.4629257 107.2730540  56.9641193 102.1329257 108.1430540  57.4641193
 100.3129257 106.9730540  57.5541193  99.8029257 106.2230540  57.1441193
 100.0029257 107.4930540  58.8541193 100.0329257 108.5730540  58.9241193
  98.5729257 107.0430540  59.1741193  98.4229257 105.9630540  59.3841193
  98.0129257 107.2830540  58.2441193  97.8429257 107.8230540  60.2541193
  97.5729257 108.9930540  60.1341193  97.4529257 107.2130540  61.2541193
 101.0229257 106.9630540  59.9541193 101.3829257 107.7430540  60.8141193
 101.3929257 105.6130540  59.9141193 101.0129257 105.0030540  59.2241193
 102.4129257 105.0330540  60.8241193 102.1929257 105.2830540  61.8541193
 102.3629257 103.5130540  60.7241193 102.4129257 103.1430540  59.6841193
 103.4129257 103.0130540  61.7341193 103.4229257 103.5430540  62.7141193
 103.1729257 101.9530540  61.9241193 104.4029257 103.0930540  61.2341193
 100.9629257 103.1430540  61.2641193 100.1529257 103.4530540  60.5541193
 100.8529257 103.7530540  62.1841193 100.7129257 101.7030540  61.4741193
  99.6329257 101.4530540  61.3541193 101.2929257 101.0530540  60.7841193
 100.8729257 101.4930540  62.5541193 103.7229257 105.6430540  60.5641193
 104.4529257 106.0630540  61.4841193 104.0929257 105.9230540  59.2941193
 103.5829257 105.7730540  58.4541193 105.4029257 106.5530540  58.9941193
 106.1629257 106.0430540  59.5741193 105.9429257 106.4130540  57.5441193
 106.7629257 107.1430540  57.3541193 105.2429257 106.6030540  56.7141193
 106.1829257 104.8930540  57.3141193 105.2329257 104.3230540  57.2941193
 106.7429257 104.5730540  58.2141193 107.1929257 104.7030540  55.8541193
 107.2629257 102.8730540  56.1641193 106.2229257 102.4930540  56.2241193
 107.5729257 102.3530540  55.2341193 107.9429257 102.5530540  56.9941193
 105.5229257 107.9330540  59.5541193 106.5229257 108.2930540  60.1941193
 104.5129257 108.7230540  59.3041193 103.7529257 108.3530540  58.7841193
 104.4329257 110.0930540  59.7641193 105.4029257 110.5230540  59.5741193
 103.3329257 110.8230540  58.9241193 102.9629257 111.7230540  59.4541193
 102.4429257 110.1730540  58.7441193 103.8529257 111.2430540  57.4841193
 102.9129257 111.3730540  56.9241193 104.3429257 110.4030540  56.9541193
 105.0729257 112.6230540  57.4341193 103.7429257 113.8130540  57.8841193
 103.5729257 113.7330540  58.9841193 104.0229257 114.8430540  57.5941193
 102.8329257 113.5030540  57.3141193 104.0429257 110.3630540  61.2941193
 104.5129257 111.3430540  61.9041193 103.2229257 109.4830540  61.8041193
 102.7029257 108.8230540  61.2541193 102.6129257 109.7730540  63.0841193
 103.0429257 110.6430540  63.5741193 101.1829257 110.1930540  62.8941193
 100.6129257 110.3830540  63.8341193 100.6729257 109.3630540  62.3641193
 101.1029257 111.2630540  61.9041193 100.7729257 111.2030540  60.7141193
 101.4529257 112.4830540  62.4141193 101.6129257 112.7030540  63.3841193
 101.6429257 113.2030540  61.7441193 102.5829257 108.5530540  63.9541193
 101.9329257 108.6230540  65.0241193 103.2429257 107.4930540  63.5341193
 103.5429257 107.4330540  62.5941193 103.4629257 106.2830540  64.3441193
 102.4929257 105.8430540  64.5441193 104.1129257 105.6830540  63.7241193
 104.1929257 106.4930540  65.6441193 105.1929257 107.1830540  65.6941193
 103.7529257 105.7330540  66.6641193 103.1129257 105.0030540  66.4541193
 104.3229257 105.8030540  67.9741193 104.6529257 106.8230540  68.1141193
 103.2729257 105.5030540  69.0741193 103.7129257 105.4430540  70.0841193
 102.7929257 104.5530540  68.7641193 102.1029257 106.4630540  69.1541193
 100.8829257 106.2430540  68.9841193 102.4329257 107.7630540  69.5041193
 103.3629257 107.8630540  69.8841193 101.7129257 108.4530540  69.4741193
 105.5029257 104.9430540  68.0541193 105.4029257 103.7430540  67.9541193
 106.6929257 105.5530540  68.3141193 106.6029257 106.5430540  68.4041193
 107.9829257 104.8730540  68.5341193 108.2929257 104.3930540  67.6141193
 109.0929257 105.9130540  68.7241193 110.0629257 105.4730540  69.0341193
 108.7429257 106.6630540  69.4741193 109.4229257 106.6430540  67.4541193
 108.5729257 107.2830540  67.1241193 109.6529257 106.0030540  66.5741193
 110.5429257 107.5830540  67.6541193 110.1529257 108.3430540  68.3641193
 111.3329257 107.1430540  68.3041193 110.9229257 108.2430540  66.3341193
 110.0329257 108.6130540  65.7741193 111.4729257 107.4730540  65.7641193
 111.8029257 109.3630540  66.6441193 112.4429257 109.6430540  65.8741193
 111.2329257 110.2330540  66.7141193 112.4229257 109.1330540  67.4541193
 107.9529257 103.9230540  69.7041193 107.7429257 104.3730540  70.8441193
 108.1129257 102.5830540  69.5041193 108.2129257 102.1630540  68.6141193
 107.9529257 101.6630540  70.6141193 108.2629257 102.1430540  71.5341193
 106.4829257 101.1930540  70.8741193 106.4829257 100.2830540  71.5041193
 106.0529257 100.9630540  69.8841193 105.5529257 102.1630540  71.5441193
 105.4729257 103.1930540  71.1341193 106.0329257 102.3830540  72.5241193
 104.1329257 101.5730540  71.4741193 103.7529257 100.7730540  70.6341193
 103.3229257 101.9830540  72.4541193 103.6929257 102.3930540  73.2841193
 102.3329257 101.8230540  72.3841193 108.8829257 100.4730540  70.5041193
 109.2129257  99.8930540  69.4441193 109.3329257  99.9330540  71.6741193
 109.2329257 100.5030540  72.4941193 109.6829257  98.5030540  71.9041193
 110.3829257  98.3530540  71.1041193 110.4629257  98.2430540  73.2141193
 111.3729257  98.8630540  73.1341193 110.8029257  97.2030540  73.3341193
 109.8529257  98.6730540  74.4441193 110.4029257  98.4130540  75.1941193
 108.5729257  97.5030540  71.6941193 107.3829257  97.8230540  71.5841193
 108.9829257  96.2330540  71.4341193 109.9829257  96.1330540  71.4441193
 108.1529257  95.1730540  70.8741193 107.1129257  95.3830540  71.0941193
 108.2029257  95.1930540  69.3041193 108.4129257  96.2530540  69.0541193
 107.2629257  94.8930540  68.7841193 109.2529257  94.3430540  68.6841193
 110.4329257  94.5830540  69.0241193 108.8829257  93.3230540  67.9941193
 108.5829257  93.8530540  71.4441193 109.5829257  93.7630540  72.1941193
 107.9029257  92.7230540  71.2041193 107.1429257  92.8330540  70.5641193
 108.2329257  91.4030540  71.5541193 108.3929257  91.4230540  72.6241193
 107.0929257  90.4330540  71.2341193 106.8029257  90.6230540  70.1741193
 106.2729257  90.7330540  71.9041193 107.3429257  88.9730540  71.4641193
 107.7129257  88.8030540  72.4941193 108.2129257  88.5530540  70.9041193
 106.2229257  87.9930540  71.1141193 105.2629257  88.2330540  71.6241193
 106.3929257  86.9030540  71.2641193 105.9429257  88.1230540  69.6441193
 105.2829257  88.8130540  69.3641193 106.5329257  87.4530540  68.6541193
 106.1529257  87.7130540  67.4541193 105.3129257  88.2330540  67.3841193
 106.5529257  87.1530540  66.7341193 107.5229257  86.5630540  68.8241193
 108.0929257  86.5430540  69.6541193 107.7429257  85.9830540  68.0441193
 109.4629257  90.8530540  70.9141193 110.2929257  90.1630540  71.6141193
 109.7229257  91.1130540  69.6141193 109.0429257  91.6930540  69.1741193
 110.8329257  90.5130540  68.8641193 110.9529257  89.5030540  69.2341193
 110.5329257  90.4230540  67.3241193 111.4229257  89.8730540  66.9341193
 110.4429257  91.6930540  66.6641193 109.9529257  92.2430540  67.2841193
 109.2729257  89.6130540  67.1141193 109.1529257  89.3830540  66.0341193
 109.2629257  88.6730540  67.7041193 108.3429257  90.0830540  67.5141193
 112.1629257  91.2530540  69.1241193 113.2329257  90.5730540  69.0141193
 112.1629257  92.5630540  69.4441193 111.3629257  93.1530540  69.5041193
 113.2929257  93.3030540  69.8241193 113.0229257  94.0430540  70.5641193
 114.1429257  92.7830540  70.2441193 113.9229257  94.1230540  68.7341193
 114.9729257  94.7430540  68.9041193 113.0929257  94.1530540  67.6241193
 112.4529257  93.3930540  67.6141193 113.4229257  94.9030540  66.3441193
 114.4829257  95.0030540  66.2141193 112.7829257  94.1130540  65.1841193
 111.7629257  93.9030540  65.5841193 112.8029257  94.9330540  63.9741193
 112.5429257  94.3930540  63.0441193 112.0729257  95.7730540  64.0041193
 113.8229257  95.3330540  63.7741193 113.5429257  92.8330540  65.1141193
 114.6029257  93.0530540  64.8741193 113.3729257  92.1630540  65.9841193
 113.0729257  92.2730540  64.2641193 112.8529257  96.3230540  66.5141193
 113.4229257  97.3230540  66.0741193 111.7429257  96.4330540  67.2541193
 111.3729257  95.6130540  67.6841193 111.0429257  97.6830540  67.4941193
 110.2929257  97.5130540  68.2541193 111.7529257  98.4430540  67.7841193
 110.2429257  98.1630540  66.3941193 110.4429257  97.8830540  65.2141193
 109.2329257  98.9930540  66.7441193 109.1729257  99.4430540  67.6241193
 108.2129257  99.3530540  65.7741193 108.4529257  99.0430540  64.7741193
 106.8529257  98.6530540  65.9341193 106.0429257  99.0730540  65.3141193
 106.9329257  97.1730540  65.5641193 107.0129257  97.1230540  64.4541193
 107.8229257  96.7130540  66.0341193 105.9829257  96.6730540  65.8541193
 106.3629257  98.8130540  67.3941193 106.3729257  99.8630540  67.7541193
 105.3429257  98.3930540  67.4941193 106.9629257  98.1730540  68.0741193
 108.0329257 100.7830540  65.7841193 108.4829257 101.5130540  66.6341193
 107.2929257 101.2330540  64.7441193 107.2529257 100.6830540  63.9141193
 106.4329257 102.3730540  64.8441193 106.6529257 102.8330540  65.7941193
 106.6829257 103.2830540  63.5641193 105.8729257 104.0530540  63.5841193
 106.5229257 102.6330540  62.6841193 108.0229257 103.9030540  63.4341193
 108.8229257 103.1330540  63.5141193 108.1229257 104.7630540  62.0841193
 107.2429257 105.4430540  61.9641193 109.0429257 105.3830540  62.1041193
 108.1229257 104.1030540  61.1941193 108.2829257 104.8830540  64.5841193
 108.1929257 104.3630540  65.5641193 109.2829257 105.3430540  64.4441193
 107.5929257 105.7530540  64.5941193 105.0029257 101.8030540  64.8741193
 104.6729257 100.8130540  64.1741193 104.0429257 102.4030540  65.6841193
 104.3229257 103.0430540  66.3941193 102.6929257 101.7430540  65.8141193
 102.5929257 101.0830540  64.9741193 102.6529257 100.9430540  67.1241193
 103.6329257 100.4230540  67.1941193 101.8429257 100.1830540  67.0641193
 102.5529257 101.7930540  68.2941193 102.9529257 101.3030540  69.0141193
 101.6729257 102.7830540  65.7641193 101.9529257 103.9930540  65.8941193
 100.4329257 102.3330540  65.4641193 100.2529257 101.4130540  65.1241193
  99.2129257 103.0930540  65.4641193  99.2329257 103.9030540  66.1841193
  98.8829257 103.7230540  64.0741193  97.7929257 103.9330540  64.0541193
  99.1929257 102.9830540  63.3041193  99.4629257 105.1530540  63.8441193
  99.1229257 105.4130540  62.8141193 100.5629257 105.0430540  63.8741193
  99.0929257 106.3630540  64.7441193  99.5829257 106.1030540  65.7041193
  99.5029257 107.3230540  64.3641193  97.6029257 106.7030540  65.0141193
  97.5829257 107.6930540  65.5241193  97.1629257 105.9830540  65.7341193
  96.7529257 106.8130540  63.8041193  96.1929257 105.9430540  63.6741193
  96.1529257 107.6630540  63.8441193  97.3429257 106.8930540  62.9541193
  98.0929257 102.1530540  65.9241193  98.0829257 100.9630540  65.7541193
  97.1229257 102.6830540  66.6741193  97.1229257 103.6530540  66.9341193
  96.0529257 101.8530540  67.3141193  96.3229257 100.8230540  67.1141193
  96.0729257 102.0130540  68.8241193  95.9029257 103.0830540  69.1041193
  97.0429257 101.7530540  69.3041193  95.0629257 101.0730540  69.4341193
  95.4629257  99.7130540  69.6541193  96.4329257  99.2930540  69.4241193
  94.5729257  98.9030540  70.3341193  94.8429257  97.8930540  70.6141193
  93.2729257  99.3530540  70.6141193  92.5729257  98.6730540  71.0841193
  93.9229257 101.5930540  70.0041193  93.7529257 102.6430540  69.8441193
  92.9329257 100.6830540  70.4941193  92.1029257 101.0430540  71.0841193
  94.7229257 102.2730540  66.6141193  94.4129257 103.4530540  66.5541193
  94.0229257 101.1930540  66.0541193  94.4629257 100.3030540  66.0141193
  92.6429257 101.2330540  65.7241193  92.5129257 100.1530540  65.7541193
  92.1029257 101.8830540  66.3841193  92.4629257 101.7630540  64.2841193
  92.8429257 102.8830540  63.9941193  91.9029257 100.9030540  63.4041193
  91.8329257  99.9430540  63.6641193  91.8129257 101.1730540  61.9641193
  91.4229257 102.1630540  61.7741193  93.0829257 100.8330540  61.1441193
  92.9729257 100.6430540  60.0641193  93.3629257  99.8330540  61.5441193
  94.2129257 101.7830540  61.3341193  94.2129257 103.0330540  60.7541193
  93.3129257 103.2730540  60.2041193  95.3229257 103.8630540  60.7641193
  95.3029257 104.7330540  60.1241193  96.5129257 103.4330540  61.2841193
  97.7229257 104.0130540  61.0541193  97.5729257 104.8530540  60.6241193
  95.4229257 101.3930540  62.0241193  95.4729257 100.3930540  62.4341193
  96.4929257 102.2230540  62.0341193  97.3929257 101.9230540  62.5641193
  90.7629257 100.2330540  61.3641193  90.3329257  99.2730540  62.0341193
  90.2329257 100.5130540  60.1241193  90.4729257 101.3330540  59.6041193
  89.3329257  99.5430540  59.5441193  89.7029257  98.5630540  59.8041193
  87.9029257  99.8130540  60.0041193  88.0629257  99.6930540  61.1041193
  87.4329257 101.2530540  59.8441193  86.6329257 101.5630540  60.5441193
  88.2929257 101.9630540  59.9341193  86.8729257 101.2330540  58.8841193
  86.9729257  98.7030540  59.4241193  87.4529257  97.7130540  59.6141193
  86.8829257  98.7330540  58.3241193  85.5629257  98.7430540  59.9641193
  84.8829257  99.4530540  59.4341193  85.1329257  97.7430540  59.7441193
  85.4129257  98.9130540  61.0541193  89.3829257  99.6330540  58.0141193
  89.3629257 100.6330540  57.3341193  89.3929257  98.4630540  57.3941193
  89.5129257  97.6030540  57.8841193  89.4329257  98.4630540  55.9041193
  89.2129257  99.4230540  55.4541193  90.7329257  97.8830540  55.4041193
  90.7229257  97.9730540  54.3041193  90.8029257  96.7830540  55.5441193
  91.9729257  98.5830540  55.9941193  92.1629257  98.1830540  57.0141193
  91.7229257  99.6630540  56.0941193  93.4529257  98.3430540  55.0541193
  93.7029257  96.6130540  55.4241193  93.5129257  96.2930540  56.4741193
  92.9629257  96.0330540  54.8241193  94.6929257  96.2630540  55.0741193
  88.3029257  97.5630540  55.3641193  87.8829257  96.6830540  56.0841193
  87.8729257  97.7530540  54.1441193  88.2629257  98.4430540  53.5441193
  86.7229257  97.0530540  53.6241193  86.5129257  96.1730540  54.2041193
  85.4929257  98.0030540  53.6941193  84.5929257  97.4530540  53.3641193
  85.4129257  98.9330540  53.0841193  85.1629257  98.5230540  55.1241193
  85.8129257  99.4030540  55.3041193  85.5129257  97.8230540  55.9141193
  83.6929257  98.9130540  55.3241193  83.3129257  99.6030540  54.5441193
  83.0529257  98.0030540  55.3741193  83.4329257  99.6030540  56.6841193
  84.0829257 100.4530540  56.9841193  83.5729257  98.8130540  57.4541193
  82.0829257 100.1630540  56.8941193  81.8529257 100.5030540  57.8541193
  81.9729257 100.9730540  56.2541193  81.4429257  99.4230540  56.5641193
  86.9329257  96.8630540  52.0941193  87.1829257  97.8630540  51.4441193
  86.8729257  95.5730540  51.6641193  86.8429257  94.8730540  52.3841193
  87.0829257  95.0230540  50.3541193  87.2929257  95.8430540  49.6841193
  88.3629257  94.1430540  50.3641193  88.6329257  93.7830540  49.3441193
  88.1429257  93.2030540  50.9241193  89.5929257  94.8830540  50.9441193
  90.0229257  96.0830540  50.3941193  89.4729257  96.4930540  49.5641193
  91.1129257  96.7730540  50.9141193  91.4529257  97.6830540  50.4441193
  91.5929257  96.3330540  52.1241193  92.4329257  96.8930540  52.5141193
  89.9829257  94.5130540  52.2041193  89.5229257  93.7130540  52.7541193
  91.0429257  95.1830540  52.8341193  91.5029257  94.8630540  53.7541193
  85.9229257  94.2630540  49.8741193  85.4729257  93.2930540  50.4641193
  85.3429257  94.7030540  48.7541193  85.9029257  95.3330540  48.2241193
  84.0929257  94.2030540  48.1441193  83.5329257  93.7930540  48.9641193
  83.2229257  95.3330540  47.4641193  83.9729257  96.0230540  47.0241193
  82.8329257  95.9830540  48.2741193  82.0529257  95.0130540  46.5841193
  81.4829257  93.9030540  46.8041193  81.7029257  95.9830540  45.9041193
  84.4529257  93.0430540  47.1341193  85.0729257  93.2530540  46.0441193
  84.0429257  91.8130540  47.4141193  83.5929257  91.7930540  48.3041193
  84.4229257  90.6030540  46.8141193  85.4229257  90.6730540  46.3941193
  84.4229257  89.4130540  47.7641193  84.7429257  88.5130540  47.2041193
  83.4429257  89.1230540  48.2041193  85.3429257  89.5630540  49.0341193
  85.0729257  90.4830540  49.5941193  85.2329257  88.4230540  49.9541193
  84.1929257  88.3330540  50.3341193  85.5829257  87.5630540  49.3441193
  85.8929257  88.6130540  50.8341193  86.7829257  89.7330540  48.4741193
  87.0129257  88.7630540  47.9941193  86.8429257  90.5430540  47.7241193
  87.5529257  89.8730540  49.2741193  83.4429257  90.3130540  45.6741193
  83.5629257  89.3830540  44.8841193  82.5029257  91.2630540  45.4241193
  82.4529257  91.9530540  46.1341193  81.5429257  91.1730540  44.3641193
  81.4329257  90.1230540  44.1641193  80.1729257  91.9130540  44.7041193
  79.7229257  91.6730540  45.6941193  79.4529257  91.6330540  43.9041193
  80.3729257  93.3130540  44.5441193  80.7929257  93.5730540  45.3741193
  82.2329257  91.8130540  43.1441193  82.1429257  91.3730540  41.9941193
  83.0929257  92.8930540  43.3641193  83.1329257  93.1130540  44.3341193
  83.8529257  93.6730540  42.4041193  83.4129257  93.6530540  41.4141193
  83.7529257  95.1330540  42.7341193  84.4129257  95.7130540  42.0541193
  84.1129257  95.4330540  43.7441193  82.3529257  95.7930540  42.6641193
  82.2729257  96.6830540  43.3241193  81.6629257  95.1130540  43.2141193
  81.8229257  96.1530540  41.3041193  82.0629257  95.5030540  40.2641193
  80.8829257  97.1930540  41.2841193  80.7729257  97.8330540  42.0441193
  80.4429257  97.3330540  40.3941193  85.3329257  93.3630540  42.2141193
  85.9129257  93.7630540  41.2041193  85.9329257  92.5430540  43.0941193
  85.4629257  92.4730540  43.9741193  87.3329257  92.3230540  42.9241193
  87.3829257  91.7930540  41.9841193  88.1629257  93.6530540  42.9041193
  88.1129257  94.2630540  41.9741193  89.2629257  93.4630540  42.9241193
  87.8829257  94.5830540  44.0341193  88.5829257  94.4330540  45.2741193
  89.4529257  93.7830540  45.2741193  88.2729257  95.2530540  46.3341193
  88.8429257  95.2330540  47.2541193  87.2129257  96.2530540  46.1841193
  86.9129257  97.0730540  47.2441193  86.5229257  97.8930540  46.9541193
  86.9229257  95.5830540  43.8841193  86.5229257  95.8530540  42.9241193
  86.5329257  96.3230540  44.9941193  85.7529257  97.0630540  44.9241193
  87.9329257  91.3930540  43.9441193  87.3929257  91.1630540  45.0141193
  89.0729257  90.7630540  43.6741193  89.4629257  90.9130540  42.7741193
  89.8129257  89.9730540  44.6641193  89.1429257  89.7630540  45.4841193
  90.3529257  88.6830540  44.0441193  91.0029257  88.8230540  43.1541193
  89.5029257  88.0730540  43.6641193  91.1529257  87.8030540  44.9841193
  90.4429257  87.2930540  46.1041193  89.4529257  87.6630540  46.3341193
  91.1429257  86.5230540  47.0641193  90.5129257  86.2530540  47.9041193
  92.4929257  86.1230540  46.8241193  93.0829257  85.5330540  47.5241193
  92.4429257  87.3230540  44.7241193  93.0129257  87.7230540  43.8941193
  93.0929257  86.5730540  45.6741193  94.1229257  86.3430540  45.4441193
  91.0229257  90.7830540  45.1741193  91.9229257  91.0830540  44.3941193
  91.0929257  91.1830540  46.4141193  90.2629257  90.7030540  47.5241193
  89.1729257  90.8530540  47.3641193  90.4829257  89.6630540  47.8441193
  91.8929257  92.3930540  46.6541193  91.9329257  93.0530540  45.8041193
  91.2129257  92.9230540  47.8941193  90.3229257  93.5330540  47.6241193
  91.8929257  93.6330540  48.4141193  90.6329257  91.6730540  48.6241193
  89.7829257  91.9030540  49.2941193  91.4429257  91.2230540  49.2441193
  93.3329257  91.9930540  46.9341193  93.8929257  92.2030540  48.0441193
  94.0229257  91.4430540  45.9541193  93.5929257  91.0330540  45.1541193
  95.3929257  90.9830540  46.1941193  95.6129257  90.8730540  47.2441193
  95.6329257  89.6530540  45.4941193  95.5529257  89.6430540  44.3841193
  94.8929257  88.9930540  45.9941193  96.9329257  88.9430540  45.7641193
  97.7729257  89.6530540  45.5941193  96.9529257  88.3630540  47.2041193
  96.1129257  87.6230540  47.2341193  97.9529257  87.9230540  47.3741193
  96.8729257  89.2030540  47.9241193  97.1129257  87.7530540  44.8541193
  98.0129257  87.1230540  44.9941193  96.2329257  87.0930540  45.0641193
  97.0029257  88.0430540  43.7841193  96.4229257  92.0030540  45.6441193
  96.3729257  92.4630540  44.5241193  97.2229257  92.5030540  46.6241193
  97.2629257  91.9830540  47.4741193  98.0429257  93.6930540  46.5141193
  97.3929257  94.5130540  46.2541193  98.7229257  94.0030540  47.9441193
  99.0929257  95.0430540  47.8441193  99.6229257  93.3730540  48.0741193
  97.7529257  94.0730540  49.1541193  97.5529257  93.0330540  49.4841193
  98.3829257  94.6930540  50.4241193  99.2429257  94.0430540  50.7041193
  98.7129257  95.6630540  49.9941193  97.6529257  94.6830540  51.2641193
  96.5429257  94.8830540  48.9241193  95.7229257  94.4830540  48.2841193
  96.0129257  95.1730540  49.8641193  96.7229257  95.9130540  48.5541193
  99.0229257  93.6530540  45.3341193  99.7929257  92.7030540  45.0641193
  98.9829257  94.6830540  44.4441193  98.5929257  95.5730540  44.6941193
  99.6529257  94.6630540  43.1841193  99.8829257  93.6730540  42.8141193
  98.7829257  95.2130540  42.0741193  99.3529257  95.0930540  41.1341193
  98.4329257  96.5930540  42.2841193  98.2429257  96.7330540  43.2141193
  97.4629257  94.5330540  41.9041193  96.9029257  94.7430540  42.8341193
  96.8629257  94.9230540  41.0541193  97.4929257  93.4330540  41.7841193
 100.9129257  95.4830540  43.2041193 101.6129257  95.4530540  42.1741193
 101.1529257  96.2130540  44.3141193 100.4329257  96.3630540  44.9841193
 102.4029257  96.9830540  44.5041193 102.7029257  97.4030540  43.5541193
 102.2629257  98.3330540  45.2641193 103.2329257  98.8430540  45.4441193
 101.6929257  98.0430540  46.5541193 100.7829257  97.7830540  46.4141193
 101.3429257  99.3330540  44.5041193 101.6629257  99.4530540  43.4441193
 100.2929257  98.9930540  44.5541193 101.3929257 100.3330540  44.9941193
 103.5929257  96.2330540  44.8441193 104.7129257  96.7130540  44.7741193
 103.4129257  94.9430540  45.1541193 102.4829257  94.5830540  45.1141193
 104.5029257  93.9330540  45.0541193 105.1829257  94.2630540  44.2841193
 105.3429257  93.7330540  46.3141193 105.7329257  94.7230540  46.6041193
 106.2729257  93.1230540  46.1841193 104.4129257  93.2130540  47.5041193
 104.0629257  92.1830540  47.2841193 103.5229257  93.8630540  47.4941193
 105.0929257  93.1630540  48.8841193 106.1329257  92.8230540  48.7041193
 105.2629257  94.1930540  49.2741193 104.3329257  92.2630540  49.8541193
 104.3929257  91.1630540  49.6641193 103.2329257  92.4530540  49.8741193
 104.8229257  92.3930540  51.2541193 104.7029257  93.3430540  51.6441193
 104.3729257  91.7330540  51.9241193 105.8029257  92.0530540  51.1941193
 103.8729257  92.5830540  44.7041193 102.6029257  92.4130540  44.8141193
 104.6829257  91.5730540  44.2041193 105.6429257  91.7830540  44.0641193
 104.1829257  90.2430540  43.8741193 103.1929257  90.3830540  43.4741193
 105.1729257  89.6030540  42.9041193 106.2029257  89.6130540  43.3241193
 105.1129257  90.3430540  42.0841193 104.6729257  88.2430540  42.3641193
 103.7429257  88.4030540  41.7741193 104.3929257  87.5130540  43.1541193
 105.7829257  87.7030540  41.4441193 106.0929257  88.4030540  40.6441193
 106.7029257  87.7230540  42.0741193 105.6529257  86.3130540  40.9541193
 105.0829257  85.6830540  41.6741193 106.6429257  85.8830540  40.6941193
 104.7929257  86.3630540  39.7241193 104.1629257  85.5430540  39.6341193
 104.2329257  87.2430540  39.6941193 105.3829257  86.4030540  38.8641193
 104.1329257  89.3330540  45.1541193 105.1729257  89.0130540  45.7141193
 102.8829257  88.8730540  45.4341193 102.1829257  89.1630540  44.7841193
 102.4929257  87.8230540  46.4041193 103.2429257  87.7430540  47.1741193
 101.0729257  88.2230540  46.9841193 100.7229257  87.5430540  47.7841193
 100.3429257  88.3930540  46.1641193 101.1529257  89.5630540  47.8641193
 101.7529257  90.3230540  47.3141193  99.8329257  90.2830540  48.0641193
  99.2529257  89.7730540  48.8641193 100.0729257  91.3230540  48.3741193
  99.1529257  90.1830540  47.1941193 101.9629257  89.4230540  49.1241193
 102.9129257  88.8630540  49.0641193 102.0229257  90.4430540  49.5641193
 101.3329257  88.9130540  49.8841193 102.4229257  86.4530540  45.8641193
 101.9129257  86.2530540  44.7841193 102.9029257  85.4730540  46.6441193
 103.3929257  85.7330540  47.4741193 102.6729257  84.0530540  46.4341193
 102.5629257  83.9030540  45.3741193 103.9329257  83.0930540  46.7341193
 103.8329257  82.0630540  46.3341193 104.1029257  83.1030540  47.8341193
 105.1129257  83.7530540  45.9941193 106.1429257  84.4530540  46.6341193
 105.9829257  84.7330540  47.6641193 107.2229257  84.9530540  45.9041193
 107.9629257  85.4630540  46.4941193 107.4329257  84.5330540  44.5141193
 108.3229257  84.8530540  43.9841193 105.2829257  83.4930540  44.5441193
 104.5829257  82.8430540  44.0341193 106.5029257  83.7930540  43.9241193
 106.6629257  83.6430540  42.8641193 101.4929257  83.6730540  47.3241193
 101.3529257  84.1430540  48.4641193 100.5829257  82.8030540  46.7841193
 100.6829257  82.5230540  45.8241193  99.3329257  82.4830540  47.4441193
  99.3529257  82.9330540  48.4241193  98.0629257  82.8330540  46.5441193
  97.5629257  81.8930540  46.2241193  98.3529257  83.5630540  45.7541193
  96.9929257  83.6430540  47.2841193  96.8629257  83.1830540  48.2841193
  97.5629257  85.0030540  47.6641193  98.4229257  84.9930540  48.3741193
  97.8329257  85.5830540  46.7541193  96.7029257  85.4330540  48.2141193
  95.6529257  83.7930540  46.6441193  94.9829257  84.3830540  47.3141193
  95.6629257  84.1530540  45.5941193  95.2529257  82.7630540  46.6741193
  99.1229257  80.9830540  47.7641193  98.1129257  80.5730540  48.2841193
 100.0729257  80.0730540  47.3341193 100.9729257  80.3130540  46.9741193
  99.8429257  78.6430540  47.3941193  98.8429257  78.4130540  47.0641193
 100.7529257  77.7330540  46.5341193 101.8229257  78.0530540  46.5741193
 100.4829257  77.9830540  45.4841193 100.7729257  76.1830540  46.7041193
  99.8529257  75.7430540  46.2741193 100.8029257  75.8430540  47.7641193
 102.0029257  75.6530540  45.9141193 101.9829257  76.1230540  44.9141193
 101.9529257  74.5630540  45.7141193 103.2629257  75.9730540  46.6441193
 103.7729257  76.7230540  46.2341193 103.6829257  75.5130540  47.7941193
 103.1129257  74.4330540  48.3941193 102.2629257  74.0030540  48.1041193
 103.6029257  74.0030540  49.1441193 104.7529257  75.9830540  48.3541193
 105.2829257  76.5930540  47.7641193 105.1929257  75.4630540  49.0841193
  99.7829257  78.1430540  48.8141193  98.9529257  77.3130540  49.1541193
 100.6529257  78.6630540  49.6941193 101.2329257  79.4330540  49.4241193
 100.8729257  78.3430540  51.0841193 101.0129257  77.2730540  51.0241193
 101.7929257  78.8730540  51.3241193  99.7229257  78.8230540  51.9841193
  99.5129257  78.2130540  52.9841193  99.1029257  80.0130540  51.6541193
  99.4729257  80.6630540  50.9941193  98.0829257  80.5330540  52.5541193
  98.3229257  80.3030540  53.5741193  98.1029257  82.0730540  52.5341193
  97.3029257  82.3030540  53.2741193  99.4629257  82.7030540  53.0341193
  99.4129257  83.8030540  53.1741193  99.7629257  82.4030540  54.0641193
 100.3029257  82.3530540  52.3941193  97.7129257  82.6930540  51.1841193
  98.0929257  82.0730540  50.3541193  98.2229257  83.6830540  51.1741193
  96.2929257  83.1230540  51.0041193  95.5629257  82.3230540  50.7841193
  96.0229257  83.6530540  51.9441193  96.1429257  83.8530540  50.1841193
  96.7129257  79.8730540  52.2741193  95.9429257  79.5530540  53.1841193
  96.4529257  79.4730540  51.0441193  96.9129257  79.8630540  50.2541193
  95.3529257  78.5130540  50.7741193  94.5029257  79.0230540  51.2041193
  95.0629257  78.3830540  49.2441193  95.9729257  77.9630540  48.7541193
  93.9429257  77.4230540  48.9841193  93.0429257  77.7330540  49.5441193
  93.7029257  77.3630540  47.8941193  94.2129257  76.3830540  49.2841193
  94.8029257  79.7230540  48.4941193  95.4329257  80.4530540  49.0341193
  93.8029257  80.1930540  48.6341193  95.1429257  79.6530540  47.0041193
  95.0429257  80.5630540  46.3841193  96.2129257  79.3730540  46.8841193
  94.6029257  78.8230540  46.5141193  95.5129257  77.1630540  51.5141193
  94.6629257  76.6130540  52.2141193  96.6929257  76.5730540  51.3741193
  97.2929257  76.9330540  50.6541193  97.1229257  75.3730540  51.9841193
  96.4729257  74.5630540  51.6941193  98.5429257  75.0930540  51.4941193
  99.1429257  74.7330540  52.3541193  98.9529257  76.0930540  51.2541193
  98.6829257  74.3030540  50.2141193  99.7129257  74.3430540  49.7841193
  98.1029257  74.6030540  49.3141193  98.3929257  72.7930540  50.4641193
  97.8329257  72.3930540  51.4541193  98.7829257  71.9030540  49.6041193
  97.0629257  75.4930540  53.5341193  96.5329257  74.5630540  54.1641193
  97.4729257  76.6530540  54.1341193  97.8229257  77.3930540  53.5641193
  97.2929257  77.0330540  55.5841193  97.6529257  76.1930540  56.1641193
  97.9829257  78.3030540  56.0441193  97.7129257  79.0930540  55.3041193
  99.0529257  78.0230540  56.1241193  97.5929257  78.8930540  57.4541193
  97.6729257  78.1830540  58.3041193  96.5229257  79.1730540  57.3941193
  98.2729257  80.1930540  57.8041193  98.0529257  81.1930540  57.0941193
  99.1429257  80.2130540  58.7141193  95.8329257  77.1730540  55.9541193
  95.4729257  76.6430540  56.9641193  95.0429257  77.7330540  55.1341193
  95.2829257  77.8930540  54.1841193  93.6429257  77.8730540  55.3841193
  93.5729257  78.1930540  56.4141193  92.9929257  78.7130540  54.2341193
  93.2829257  78.2230540  53.2741193  93.5029257  79.7030540  54.3041193
  91.4229257  79.0230540  54.5141193  90.9429257  78.0430540  54.3141193
  91.1729257  79.4330540  55.9441193  91.4629257  78.6230540  56.6541193
  91.6829257  80.3930540  56.1541193  90.0829257  79.6030540  56.1041193
  90.8029257  80.0230540  53.5441193  91.1529257  81.0530540  53.7841193
  90.9929257  79.8330540  52.4741193  89.7029257  80.0630540  53.7241193
  92.8529257  76.5430540  55.3741193  91.9929257  76.3330540  56.2241193
  93.1529257  75.6830540  54.4041193  93.8629257  75.9530540  53.7541193
  92.6529257  74.3330540  54.2741193  91.5729257  74.4030540  54.2841193
  93.1229257  73.5530540  52.9541193  92.7629257  72.5130540  53.1341193
  94.2329257  73.6430540  52.9541193  92.5129257  74.1730540  51.6541193
  92.7229257  75.2630540  51.6341193  93.0229257  73.5430540  50.4241193
  92.7229257  72.4830540  50.2641193  92.6529257  74.1330540  49.5641193
  94.1229257  73.6130540  50.5741193  90.9429257  74.1530540  51.7041193
  90.5929257  73.1030540  51.8241193  90.6229257  74.7530540  52.5841193
  90.5329257  74.5230540  50.7441193  93.0429257  73.4430540  55.4541193
  92.2429257  72.6430540  55.9541193  94.3229257  73.5930540  55.8541193
  94.9829257  74.1330540  55.3441193  94.8529257  73.0630540  57.1141193
  94.7129257  71.9930540  57.1041193  96.3829257  73.2530540  57.1241193
  96.5429257  74.3030540  56.8041193  96.8529257  72.6030540  56.3541193
  97.2629257  73.1230540  58.3341193  98.0529257  71.9830540  58.4441193
  98.0529257  71.1430540  57.7541193  98.9829257  72.1830540  59.4441193
  99.7229257  71.6430540  59.7941193  98.8229257  73.4330540  60.0041193
  97.7129257  74.0330540  59.3541193  97.3629257  75.3330540  59.7341193
  96.5929257  75.8230540  59.1541193  98.2429257  76.0130540  60.5341193
  98.3229257  77.0930540  60.5041193  99.6129257  74.0430540  60.9741193
 100.4729257  73.5830540  61.4441193  99.2529257  75.3730540  61.2041193
  99.9929257  75.9530540  61.7441193  94.1329257  73.4230540  58.4441193
  93.7329257  72.5130540  59.1741193  93.9229257  74.7330540  58.7641193
  94.3729257  75.4130540  58.1841193  92.9729257  75.2830540  59.7341193
  93.4529257  75.0830540  60.6841193  92.6629257  76.8430540  59.5541193
  91.8329257  77.0930540  60.2441193  92.3329257  77.0730540  58.5141193
  93.7829257  77.8130540  60.0041193  95.0329257  77.5230540  60.6541193
  95.1729257  76.4730540  60.8841193  95.9729257  78.4330540  60.8341193
  96.8529257  78.2030540  61.4141193  95.8329257  79.8030540  60.4141193
  96.6729257  80.4430540  60.6641193  93.6629257  79.2130540  59.5341193
  92.8129257  79.5130540  58.9341193  94.6729257  80.1430540  59.7541193
  94.6229257  81.1530540  59.3841193  91.5729257  74.5430540  59.6641193
  91.0529257  73.9930540  60.5941193  90.9529257  74.5730540  58.4341193
  91.3329257  75.1730540  57.7341193  89.6529257  73.9630540  58.1941193
  88.9629257  74.4930540  58.8441193  89.1029257  74.2330540  56.7541193
  89.9929257  74.3630540  56.1041193  88.2629257  73.1030540  56.0941193
  88.1429257  73.3430540  55.0141193  88.9029257  72.1930540  56.1641193
  87.3129257  72.8330540  56.5941193  88.5629257  75.6530540  56.7641193
  89.2629257  76.3330540  57.2941193  87.6029257  75.5730540  57.3241193
  88.4429257  76.2230540  55.3841193  89.4729257  76.2230540  54.9741193
  87.8829257  75.5130540  54.7241193  88.0729257  77.2630540  55.4141193
  89.6529257  72.4730540  58.5641193  88.6729257  71.9630540  59.0941193
  90.7329257  71.7030540  58.1641193  91.3829257  72.1130540  57.5341193
  90.7729257  70.2530540  58.5541193  89.8429257  69.8230540  58.2141193
  92.0429257  69.6130540  57.8141193  92.2629257  68.6330540  58.3041193
  92.9729257  70.2030540  57.9641193  91.8229257  69.3230540  56.2941193
  91.8829257  70.2230540  55.6541193  90.8029257  68.8930540  56.1541193
  92.9129257  68.3130540  55.7741193  92.7729257  68.0730540  54.6941193
  93.0129257  67.3530540  56.3141193  94.1529257  69.0930540  55.9741193
  94.6929257  68.9630540  56.8141193  94.8029257  69.7630540  55.0141193
  94.2729257  70.0230540  53.8641193  93.2829257  70.1330540  53.7441193
  94.7629257  70.5130540  53.1441193  96.0129257  70.2630540  55.3341193
  96.5529257  69.7630540  56.0141193  96.4629257  70.7530540  54.5941193
  90.8229257  70.0330540  60.0941193  90.2229257  69.0730540  60.5541193
  91.3529257  70.9730540  60.7841193  91.7329257  71.7630540  60.3141193
  91.4729257  71.0230540  62.2941193  91.1429257  71.9730540  62.7041193
  90.8729257  70.2130540  62.6741193  92.8929257  70.8530540  62.6741193
  93.2029257  70.6930540  63.8841193  93.8329257  70.7630540  61.6841193
  93.5929257  70.9330540  60.7341193  95.2129257  70.4730540  61.9841193
  95.3129257  69.4630540  62.3641193  96.0429257  70.2630540  60.7241193
  97.1129257  70.1330540  60.9741193  95.9929257  71.2130540  60.1641193
  95.4929257  69.1330540  59.8441193  94.6429257  69.5830540  59.3041193
  95.2329257  68.4230540  60.6641193  96.5229257  68.5530540  58.9141193
  96.4229257  68.6930540  57.6841193  97.5329257  68.0830540  59.4441193
  95.9529257  71.4530540  62.7941193  95.6929257  72.6530540  62.7941193
  96.9329257  70.9130540  63.5341193  97.0229257  69.9230540  63.4841193
  97.8329257  71.6730540  64.4541193  97.8029257  72.7230540  64.2141193
  97.5629257  71.4830540  65.9241193  98.2529257  72.1330540  66.5041193
  97.5529257  70.1230540  66.3941193  97.9529257  70.1930540  67.2641193
  96.1729257  72.0930540  66.1441193  96.2129257  73.1330540  65.7441193
  95.3529257  71.4930540  65.6941193  95.9929257  72.3530540  67.2041193
  99.3029257  71.2330540  64.2241193 100.2329257  71.5730540  64.9741193
  99.4729257  70.5630540  63.0941193  98.7529257  70.4330540  62.4241193
 100.6729257  69.9330540  62.6941193 101.3129257  69.7430540  63.5541193
 100.3629257  68.4530540  62.1841193  99.7929257  68.6730540  61.2541193
  99.8029257  68.0730540  63.0641193 101.6029257  67.7030540  61.7841193
 102.5529257  68.1830540  61.2041193 101.5729257  66.4030540  62.2241193
 100.8929257  66.0430540  62.8641193 102.3029257  65.7930540  61.9441193
 101.5429257  70.7830540  61.6741193 101.2029257  70.9830540  60.5041193
 102.7329257  71.1630540  62.1341193 102.9329257  70.8930540  63.0741193
 103.7029257  71.9930540  61.4441193 103.1829257  72.7130540  60.8241193
 104.3729257  72.4330540  62.1641193 104.4529257  71.1930540  60.3841193
 104.9229257  71.8130540  59.4741193 104.4829257  69.8730540  60.4341193
 103.7529257  69.4930540  60.9941193 105.1529257  69.1130540  59.3841193
 105.9729257  69.7130540  59.0241193 105.5229257  67.6830540  59.8641193
 105.9229257  66.9830540  59.0941193 104.6129257  67.2830540  60.3741193
 106.5129257  67.8230540  60.9741193 106.1229257  67.6930540  62.1541193
 107.7529257  68.1630540  60.5641193 107.9629257  67.9430540  59.6141193
 108.4729257  68.3430540  61.2341193 104.2929257  68.9430540  58.2041193
 104.8529257  68.8330540  57.1041193 103.0229257  68.9430540  58.2941193
 102.5529257  69.0230540  59.1741193 102.0929257  68.8430540  57.1641193
 102.3229257  67.9830540  56.5441193 100.5829257  68.9230540  57.4541193
 100.2829257  69.9330540  57.8041193 100.2429257  67.8930540  58.2741193
  99.4229257  68.1930540  58.6541193  99.7529257  68.6630540  56.1341193
  98.6829257  68.5830540  56.4141193  99.8829257  69.4430540  55.3441193
 100.0929257  67.7130540  55.6541193 102.2729257  70.0530540  56.2341193
 102.4229257  69.9330540  55.0341193 102.4529257  71.2830540  56.7441193
 102.2929257  71.4430540  57.7141193 102.9529257  72.3630540  55.9741193
 102.3529257  72.4230540  55.0841193 102.6229257  73.7730540  56.6541193
 102.8829257  74.6130540  55.9741193 103.2329257  73.7330540  57.5841193
 101.1729257  74.0730540  57.0441193 100.8429257  73.3730540  57.8441193
 101.0829257  75.4430540  57.8141193 101.2729257  76.2230540  57.0441193
 100.1129257  75.5630540  58.3441193 101.9129257  75.5330540  58.5441193
 100.0829257  73.9730540  55.9641193  99.0629257  74.1130540  56.3541193
 100.2829257  74.6430540  55.0941193  99.9529257  72.9430540  55.5641193
 104.4029257  72.2530540  55.4141193 104.6629257  72.5430540  54.2641193
 105.2829257  71.8030540  56.3241193 104.9929257  71.7430540  57.2741193
 106.7029257  71.7030540  55.8841193 106.8829257  72.7030540  55.5141193
 107.7129257  71.4730540  57.0641193 108.6329257  71.0730540  56.5841193
 107.1729257  70.7630540  57.7241193 108.2329257  72.6930540  57.8741193
 109.2329257  72.9430540  57.4441193 107.2529257  73.8830540  57.8441193
 107.7829257  74.7630540  58.2741193 107.1529257  74.3330540  56.8341193
 106.2529257  73.6330540  58.2541193 108.5329257  72.2030540  59.2741193
 107.6429257  71.6630540  59.6641193 109.4429257  71.5630540  59.3041193
 108.7429257  73.1530540  59.8041193 107.0529257  70.6630540  54.8241193
 107.8229257  70.9230540  53.8741193 106.3329257  69.4930540  54.8541193
 105.8929257  69.3430540  55.7341193 106.3129257  68.4330540  53.8241193
 107.3129257  68.1730540  53.5241193 105.6229257  67.2030540  54.4341193
 105.5129257  66.4730540  53.5941193 104.6329257  67.5830540  54.7641193
 106.3029257  66.6230540  55.6341193 107.4629257  66.7530540  55.9641193
 105.4729257  65.8230540  56.3541193 104.5729257  65.6030540  55.9741193
 105.8429257  65.5230540  57.2341193 105.5929257  68.8830540  52.5941193
 105.6729257  68.1430540  51.5741193 104.8429257  69.9930540  52.5341193
 104.7729257  70.5630540  53.3541193 104.2729257  70.6830540  51.3741193
 104.1929257  70.0430540  50.5141193 102.8229257  71.0330540  51.7241193
 102.3829257  71.5830540  50.8741193 102.7229257  71.5730540  52.6941193
 101.9329257  69.8030540  51.8041193 102.3129257  69.2030540  52.6641193
 102.0229257  69.1830540  50.8841193 100.5529257  70.3030540  52.1841193
 100.5729257  70.5930540  53.2541193 100.3529257  71.2530540  51.6441193
  99.3729257  69.3930540  52.0241193  98.3629257  69.7430540  52.3141193
  99.5529257  68.4030540  52.5141193  99.1229257  69.1530540  50.5841193
  99.9929257  68.7930540  50.1341193  98.3329257  68.4830540  50.5641193
  98.7929257  70.0430540  50.1541193 105.0529257  71.9430540  50.9641193
 104.6929257  72.6630540  50.0041193 106.1729257  72.1530540  51.6041193
 106.5529257  71.6330540  52.3541193 107.1229257  73.2430540  51.3141193
 107.8929257  73.1230540  52.0641193 107.7129257  73.2430540  49.8641193
 107.0829257  73.5530540  48.9941193 108.1629257  72.2330540  49.7941193
 108.9529257  74.1630540  49.8741193 109.9029257  73.6230540  50.4841193
 108.9329257  75.3930540  49.3141193 108.0229257  75.7730540  49.1641193
 109.7329257  75.9830540  49.2041193 106.4329257  74.6130540  51.7041193
 106.6329257  75.5830540  51.0041193 105.6929257  74.7330540  52.7641193
 105.3829257  73.9530540  53.2941193 105.0029257  75.9430540  53.2141193
 105.1829257  76.7230540  52.4941193 103.4629257  75.6830540  53.3241193
 103.3029257  74.8530540  54.0541193 102.9129257  77.0230540  53.8841193
 103.1729257  77.9030540  53.2541193 101.8129257  76.9130540  53.8841193
 103.2429257  77.2530540  54.9241193 102.8929257  75.3030540  52.0041193
 101.7829257  75.3930540  51.9641193 103.3029257  76.0430540  51.2841193
 103.1329257  74.2930540  51.6041193 105.5729257  76.2730540  54.5341193
 105.4529257  75.6230540  55.5441193 106.3429257  77.3630540  54.6441193
 106.6029257  77.7130540  53.7541193 107.1529257  77.6630540  55.8241193
 107.3629257  76.7530540  56.3741193 108.5429257  78.0130540  55.3241193
 109.1929257  78.1730540  56.2141193 108.3729257  78.9430540  54.7441193
 109.2129257  76.8330540  54.5441193 108.5229257  76.5730540  53.7041193
 109.1829257  76.0430540  55.3141193 110.6129257  77.0430540  54.1841193
 111.1529257  77.2330540  55.1441193 110.7029257  77.9330540  53.5241193
 111.0429257  75.7730540  53.4641193 110.9929257  75.7030540  52.4641193
 111.1529257  74.5330540  53.9441193 111.2529257  74.3230540  55.2141193
 111.3129257  75.0530540  55.9041193 111.3529257  73.3930540  55.5541193
 111.2229257  73.4630540  53.1141193 111.2229257  73.6330540  52.1241193
 111.0829257  72.4930540  53.2741193 106.5629257  78.5830540  56.8541193
 107.2429257  78.9730540  57.7741193 105.2929257  78.8630540  56.8041193
 104.7229257  78.3830540  56.1441193 104.5929257  79.9730540  57.4641193
 105.0329257  80.9330540  57.2441193 103.0829257  80.0530540  57.0941193
 102.5429257  79.1030540  57.3141193 102.4929257  81.1530540  58.0341193
 101.6229257  81.6830540  57.5941193 102.2129257  80.6630540  58.9941193
 103.2229257  81.9530540  58.2641193 102.8829257  80.3930540  55.6441193
 103.7029257  80.0430540  54.9841193 103.0529257  81.4830540  55.5141193
 101.4629257  80.0530540  55.1041193 100.7329257  80.3630540  55.8841193
 101.2129257  80.5630540  54.1441193 101.4029257  78.9430540  55.0241193
 104.7129257  79.9430540  58.9641193 104.9329257  80.9130540  59.7241193
 104.6329257  78.6930540  59.4741193 104.2729257  77.9730540  58.8841193
 104.8029257  78.2930540  60.8241193 104.6129257  79.1430540  61.4641193
 103.6529257  77.3430540  61.0841193 103.8129257  76.8030540  62.0441193
 103.5229257  76.5630540  60.3141193 102.3029257  77.9630540  61.1841193
 101.3729257  78.0230540  60.1941193 101.3529257  77.4330540  59.2941193
 100.2829257  78.7530540  60.7041193  99.6329257  79.2830540  60.2041193
 100.5429257  79.1630540  61.9541193 101.7829257  78.6830540  62.3241193
 102.2929257  78.9430540  63.5641193 103.2929257  78.6030540  63.7841193
 101.5729257  79.7230540  64.5041193 101.9929257  80.0830540  65.4341193
  99.7029257  79.7930540  62.8741193  98.7129257  80.1930540  62.7241193
 100.2529257  79.9930540  64.1741193  99.6929257  80.5830540  64.8841193
 106.1329257  77.6430540  61.1741193 106.2629257  77.1730540  62.2641193
 107.1129257  77.5530540  60.2641193 107.0629257  77.8830540  59.3241193
 108.4529257  76.9630540  60.5841193 108.3329257  75.9230540  60.8641193
 109.3329257  76.9730540  59.2741193 109.2529257  77.9330540  58.7141193
 108.8529257  76.3830540  58.4741193 110.7729257  76.4830540  59.5941193
 110.8429257  75.6930540  60.3641193 111.2729257  77.4630540  59.7741193
 111.5429257  75.9630540  58.3841193 111.2329257  76.3530540  57.2841193
 112.2529257  74.9930540  58.6041193 109.2229257  77.5430540  61.8141193
 109.5229257  76.8230540  62.7641193 109.4129257  78.9030540  61.8741193
 108.9929257  79.5330540  61.2341193 110.3429257  79.5130540  62.8141193
 111.2829257  79.0030540  62.6941193 110.6129257  81.0530540  62.3641193
 111.5529257  81.4430540  62.8141193 110.7929257  81.0330540  61.2641193
 109.7129257  81.6530540  62.6341193 109.7929257  79.5730540  64.2641193
 110.4429257  79.4430540  65.2841193 108.4329257  79.5330540  64.3341193
 107.9029257  79.5030540  63.4841193 107.6329257  79.5530540  65.4541193
 108.2429257  80.0830540  66.1741193 106.2429257  80.2330540  65.2741193
 105.7529257  80.0430540  66.2541193 105.6629257  79.8330540  64.4141193
 106.3729257  81.8130540  65.1341193 107.4029257  82.3830540  65.4441193
 105.3329257  82.4730540  64.6541193 104.6929257  81.9930540  64.0441193
 105.4629257  83.4330540  64.3941193 107.3329257  78.0930540  65.9841193
 106.5129257  77.8730540  66.8441193 107.9829257  77.0830540  65.4441193
 108.5029257  77.1730540  64.5941193 107.7029257  75.7430540  65.8041193
 107.1029257  75.6630540  66.7041193 107.2429257  75.2630540  64.9541193
 108.9929257  75.1530540  66.1641193 109.0829257  73.9430540  66.4641193
 110.1329257  75.9530540  66.0441193 110.0529257  76.9430540  66.0041193
 111.4529257  75.5130540  66.4241193 111.5929257  74.5730540  65.9241193
 112.5129257  76.5030540  66.0141193 113.4429257  76.0630540  66.4141193
 112.4429257  77.7930540  66.5941193 111.7829257  78.2030540  66.0241193
 112.6529257  76.5730540  64.4441193 111.6429257  76.8730540  64.1041193
 113.4029257  77.2430540  63.9741193 112.9329257  75.5530540  64.0941193
 111.5829257  75.3130540  67.9141193 110.9329257  76.0230540  68.6941193
 112.4129257  74.3030540  68.2741193 112.9629257  73.9030540  67.5541193
 112.8029257  73.7530540  69.5941193 111.9829257  73.2930540  70.1141193
 113.9829257  72.7030540  69.4241193 114.7129257  73.3430540  68.8841193
 113.7529257  71.9030540  68.6941193 114.3829257  71.9430540  70.7141193
 114.8629257  72.5530540  71.5141193 115.0729257  71.1630540  70.3241193
 113.2729257  71.0730540  71.3441193 113.7829257  70.3930540  72.0541193
 112.7629257  70.4930540  70.5441193 112.4329257  71.9730540  72.1941193
 112.8229257  72.7730540  72.6441193 111.1629257  71.6630540  72.5641193
 110.6629257  72.2630540  73.6041193 111.3229257  72.8230540  74.1141193
 109.7129257  72.2430540  73.9041193 110.3629257  70.6930540  72.0441193
 110.6329257  70.0830540  71.3041193 109.4129257  70.7030540  72.3641193
 113.2729257  74.8430540  70.4941193 112.9129257  74.9530540  71.6541193
 114.1129257  75.7830540  69.9641193 114.5929257  75.7430540  69.0941193
 114.4429257  76.9430540  70.7941193 114.7629257  76.5330540  71.7441193
 115.7029257  77.7130540  70.2541193 115.5429257  78.7230540  70.6941193
 115.7729257  77.8830540  69.1541193 117.1129257  77.1430540  70.6141193
 117.1929257  77.1930540  71.7241193 117.8729257  77.7730540  70.1041193
 117.3129257  75.7530540  70.1341193 117.3829257  74.8630540  70.9941193
 117.4329257  75.6430540  68.9041193 113.2029257  77.8830540  70.8841193
 113.0029257  78.3730540  72.0041193 112.3529257  78.1530540  69.8741193
 112.4929257  77.7630540  68.9741193 111.1329257  78.9830540  70.0941193
 111.4429257  79.9230540  70.5441193 110.5029257  79.2130540  68.7641193
 110.1229257  78.3230540  68.2341193 111.3029257  79.7130540  68.1641193
 109.4329257  80.2530540  68.9541193 108.1029257  79.8530540  68.9841193
 108.0629257  78.7930540  68.7841193 107.0829257  80.7730540  69.1541193
 106.0429257  80.5230540  69.1941193 107.4229257  82.1330540  69.1641193
 106.7029257  82.9330540  69.2941193 109.7329257  81.6130540  68.8941193
 110.7529257  81.8930540  68.6841193 108.7029257  82.5930540  68.9341193
 108.9329257  83.6530540  68.9441193 110.1229257  78.3030540  71.0141193
 109.3829257  79.0430540  71.7541193 110.0229257  76.9430540  71.0041193
 110.4629257  76.3730540  70.3241193 109.2229257  76.1630540  71.9641193
 108.1829257  76.4730540  71.9941193 109.1629257  74.6530540  71.5341193
 108.5929257  74.0330540  72.2641193 110.1929257  74.2430540  71.4741193
 108.3529257  74.3830540  70.2241193 108.5529257  75.2230540  69.5241193
 108.7429257  73.0330540  69.6441193 108.6829257  72.2830540  70.4641193
 108.0529257  72.7730540  68.8141193 109.7329257  73.1530540  69.1741193
 106.8729257  74.3830540  70.5041193 106.5629257  75.4030540  70.8141193
 106.2629257  74.0730540  69.6341193 106.6829257  73.6530540  71.3141193
 109.7629257  76.2030540  73.3941193 109.0129257  76.5230540  74.2941193
 111.0729257  76.0030540  73.6441193 111.6429257  75.8630540  72.8441193
 111.7529257  76.2030540  74.9041193 111.2429257  75.5630540  75.6041193
 113.3029257  75.8630540  74.8041193 113.8029257  76.0730540  75.7841193
 113.6829257  76.4330540  73.9241193 113.4429257  74.3530540  74.7041193
 112.4629257  73.6730540  75.0241193 114.4929257  73.7730540  74.4441193
 111.6029257  77.5630540  75.5641193 111.1929257  77.6330540  76.7241193
 111.7129257  78.5930540  74.7341193 111.8929257  78.4430540  73.7641193
 111.3829257  79.9830540  75.1541193 111.9329257  80.2030540  76.0541193
 112.0129257  80.9030540  74.1041193 111.8429257  81.9530540  74.4241193
 111.6329257  80.8730540  73.0541193 113.5029257  80.7430540  74.0241193
 114.2229257  80.1530540  74.7941193 114.1329257  81.4430540  73.0241193
 113.5429257  82.0130540  72.4541193 115.1229257  81.5430540  73.0241193
 109.8829257  80.2730540  75.4141193 109.5329257  81.1130540  76.2441193
 108.9629257  79.4830540  74.8341193 109.2029257  78.8030540  74.1441193
 107.5529257  79.5330540  75.0841193 107.3529257  80.5530540  75.3841193
 106.6929257  79.3830540  73.7841193 105.7129257  78.9030540  74.0241193
 107.2229257  78.8030540  73.0041193 106.2729257  80.7230540  73.1341193
 105.9429257  80.4530540  72.1041193 107.2829257  81.1830540  73.0141193
 105.2729257  81.5930540  73.8341193 105.1429257  82.5630540  73.3141193
 105.7029257  81.8330540  74.8341193 103.9729257  80.8630540  73.7841193
 103.9229257  80.0930540  73.1441193 102.8629257  81.2430540  74.3741193
 102.8229257  82.4030540  75.0741193 103.6829257  82.8230540  75.3741193
 101.9629257  82.6230540  75.5441193 101.7929257  80.4630540  74.2641193
 101.9829257  79.5730540  73.8341193 100.9029257  80.7330540  74.6241193
 107.0729257  78.6930540  76.2341193 105.8629257  78.6730540  76.4641193
 108.0129257  78.0130540  76.9441193 108.9729257  78.1830540  76.7341193
 107.8229257  77.1830540  78.1041193 108.7929257  76.8030540  78.3841193
 107.1929257  77.9430540  79.2441193 107.0629257  77.2330540  80.0841193
 106.1829257  78.2830540  78.9341193 108.0129257  79.1730540  79.7541193
 107.3029257  79.7130540  80.4141193 108.2629257  79.8630540  78.9241193
 109.2929257  78.7930540  80.5841193 109.1029257  77.9030540  81.2141193
 110.2229257  78.4530540  80.0741193 109.8129257  79.8730540  81.5141193
 110.6129257  79.5330540  82.2141193 108.9529257  80.1030540  82.1841193
 110.2629257  81.1630540  80.8741193 110.8129257  81.7130540  81.5541193
 110.8629257  81.0130540  80.0341193 109.4729257  81.8230540  80.7341193
 107.1729257  75.8330540  77.8541193 106.4429257  75.3030540  78.6841193
 107.3029257  75.3830540  76.5841193 107.8029257  75.9230540  75.9141193
 106.5929257  74.2430540  75.9641193 105.8329257  73.9030540  76.6541193
 106.0729257  74.6430540  74.6041193 105.4629257  73.7830540  74.2641193
 106.8329257  74.8530540  73.8241193 105.0729257  75.7930540  74.5541193
 105.6129257  76.7030540  74.9041193 104.5029257  75.9430540  73.0741193
 103.5329257  76.4930540  73.0641193 105.1829257  76.6130540  72.5141193
 104.4729257  74.9230540  72.6341193 103.9329257  75.7430540  75.5141193
 103.2029257  74.9430540  75.2741193 104.3229257  75.6330540  76.5541193
 103.3829257  76.7130540  75.4941193 107.6129257  73.1330540  75.8541193
 107.9929257  72.8030540  74.7141193 108.0629257  72.5030540  76.9741193
 107.6929257  72.8930540  77.8141193 109.1529257  71.6030540  77.1441193
 109.9829257  71.8730540  76.5041193 109.6729257  71.7430540  78.6041193
 110.5329257  71.0630540  78.8041193 108.8729257  71.4730540  79.3241193
 110.1529257  73.1030540  79.0241193 111.2529257  73.6330540  78.3641193
 111.8629257  73.0330540  77.7041193 111.8129257  74.8930540  78.7741193
 112.7029257  75.2030540  78.2541193 111.1629257  75.6430540  79.7241193
 111.8129257  76.4330540  80.0941193 109.5329257  73.8530540  80.0841193
 108.6529257  73.4930540  80.5941193 110.1029257  75.1030540  80.3741193
 109.6129257  75.6730540  81.1541193 108.8029257  70.1630540  76.7041193
 109.6529257  69.4130540  76.2041193 107.5229257  69.7730540  76.8541193
 106.8229257  70.3830540  77.2241193 107.0029257  68.4330540  76.5841193
 107.9429257  67.9330540  76.4541193 106.3329257  67.7730540  77.7341193
 106.0729257  66.7330540  77.4341193 105.4329257  68.3530540  78.0541193
 108.0429257  66.6830540  79.2241193 107.1129257  67.7130540  79.0341193
 108.5629257  66.8830540  80.4541193 109.2629257  66.1530540  80.8541193
 108.0429257  67.9530540  81.0641193 108.2929257  68.1230540  82.0141193
 107.0629257  68.4830540  80.1741193 106.5129257  69.4030540  80.3441193
 106.2229257  68.3530540  75.2941193 105.3329257  67.5330540  75.0041193
 106.4829257  69.2930540  74.3741193 107.3029257  69.8130540  74.5941193
 105.8629257  69.5530540  73.1041193 104.9529257  68.9830540  73.0041193
 105.4429257  71.0330540  72.9741193 106.3329257  71.6730540  73.1541193
 104.7329257  71.1630540  73.8241193 104.7629257  71.4130540  71.6641193
 105.4329257  71.2130540  70.7941193 104.8329257  72.5130540  71.7441193
 103.2929257  70.9730540  71.4441193 103.3429257  69.8830540  71.2441193
 102.9129257  71.5530540  70.5841193 102.4229257  71.2930540  72.6541193
 102.2529257  70.4530540  73.1741193 101.8829257  72.4330540  73.0241193
 102.0829257  73.6230540  72.3841193 102.3729257  73.7330540  71.4341193
 101.6229257  74.4030540  72.8041193 101.2329257  72.5930540  74.1641193
 101.2629257  71.8230540  74.8041193 101.3029257  73.4230540  74.7041193
 106.8529257  69.1330540  72.0841193 107.9629257  69.5630540  72.0941193
 106.4829257  68.1730540  71.2441193 105.6229257  67.6630540  71.2741193
 107.3229257  67.7430540  70.1141193 108.2829257  67.4030540  70.4741193
 106.6329257  66.5530540  69.4741193 105.6329257  66.9130540  69.1441193
 106.4529257  65.7830540  70.2541193 107.3729257  65.9430540  68.2741193
 108.4329257  65.6930540  68.4941193 107.2029257  66.5430540  67.3541193
 106.6529257  64.6630540  67.9041193 106.3029257  63.8230540  68.7841193
 106.3029257  64.4430540  66.7141193 107.4729257  68.7730540  69.0741193
 106.5829257  69.5930540  68.8241193 108.6429257  68.8130540  68.4641193
 109.4629257  68.3130540  68.7341193 108.8729257  69.8130540  67.3941193
 108.5729257  70.7130540  67.9141193 110.3429257  69.8130540  66.9641193
 110.6929257  68.8830540  66.4841193 110.6029257  70.9430540  65.9241193
 110.5029257  71.9230540  66.4441193 111.6529257  71.0230540  65.5841193
 109.8929257  70.8930540  65.0741193 111.2829257  70.1830540  68.1641193
 112.3629257  70.0930540  67.9441193 111.0729257  71.2030540  68.5441193
 111.0929257  69.3330540  68.8541193 107.8729257  69.8330540  66.2641193
 107.6329257  68.9430540  65.5141193 107.3029257  70.9930540  65.9741193
 107.6829257  71.7830540  66.4641193 106.3429257  71.2630540  64.9641193
 106.3029257  72.3430540  64.9641193 106.6629257  70.9230540  63.4941193
 105.9129257  71.4130540  62.8241193 106.5729257  69.8230540  63.4341193
 108.0029257  71.3430540  62.9441193 108.9829257  70.6030540  62.7141193
 108.1729257  72.6830540  62.7841193 107.3829257  73.2630540  62.9741193
 109.0529257  73.1630540  62.7141193 104.9729257  70.8730540  65.3641193
 104.0029257  71.0130540  64.6041193 104.7829257  70.4430540  66.6741193
 105.5629257  70.1330540  67.2241193 103.4529257  70.4030540  67.2141193
 102.7229257  70.1530540  66.4541193 103.4129257  69.4030540  68.3741193
 104.0829257  69.8030540  69.1641193 103.9129257  68.4430540  68.1341193
 102.0329257  69.2130540  69.0241193 101.1929257  70.1030540  68.9741193
 101.8229257  68.1430540  69.7141193 103.1829257  71.8530540  67.6341193
 104.0229257  72.4530540  68.3641193 102.0529257  72.4630540  67.2141193
 101.4229257  71.9930540  66.6041193 101.7829257  73.9030540  67.3741193
 102.7129257  74.3230540  67.7141193 101.3729257  74.6630540  66.1241193
 101.2229257  75.7530540  66.3241193 100.4129257  74.2530540  65.7541193
 102.3629257  74.5130540  64.9741193 102.5929257  73.4230540  64.8741193
 101.9629257  75.1530540  63.6341193 100.9529257  74.6830540  63.5541193
 101.9629257  76.2530540  63.7341193 102.5729257  74.9230540  62.7241193
 103.7329257  75.1430540  65.3541193 103.4029257  76.0230540  65.9441193
 104.3629257  74.4330540  65.9341193 104.2829257  75.4630540  64.4341193
 100.7929257  74.1030540  68.5341193 100.4029257  75.2030540  68.8541193
 100.3729257  73.0330540  69.2841193 100.4429257  72.1030540  68.9341193
  99.3529257  73.2830540  70.2941193  99.2229257  72.3630540  70.8341193
  99.6529257  74.1030540  70.9241193  98.0029257  73.7730540  69.7641193
  97.7629257  73.7930540  68.5241193  97.0629257  74.1830540  70.6341193
  97.3729257  74.2830540  72.0241193  97.4029257  73.3030540  72.5541193
  98.2929257  74.8530540  72.2541193  95.6429257  74.4430540  70.2941193
  95.2529257  73.6830540  69.6441193  95.0329257  74.4830540  71.7641193
  94.8329257  73.4630540  72.1541193  94.0829257  75.0630540  71.8041193
  96.2129257  74.9930540  72.6041193  96.1229257  74.6130540  73.6441193
  96.3529257  76.0930540  72.6241193  95.3729257  75.8330540  69.5841193
  94.4729257  76.6230540  69.9641193  96.1529257  76.1030540  68.5541193
  96.9329257  75.5030540  68.4141193  96.0929257  77.1930540  67.5841193
  96.2729257  78.1430540  68.0641193  97.2529257  77.1530540  66.5441193
  96.9429257  77.8830540  65.7641193  98.5229257  77.6330540  67.2541193
  98.2929257  78.4930540  67.9141193  98.7829257  76.8130540  67.9641193
  99.3929257  77.8330540  66.6041193  97.3629257  75.8130540  65.8141193
  96.3929257  75.3730540  65.5241193  97.9229257  75.0930540  66.4441193
  98.1629257  76.0930540  64.5741193  99.1029257  76.6630540  64.7541193
  98.4929257  75.1330540  64.1141193  97.4929257  76.6530540  63.9041193
  94.7029257  77.2130540  66.8641193  93.8529257  76.3330540  67.0041193
  94.5829257  78.2630540  65.9741193  95.2129257  79.0230540  66.0641193
  93.5129257  78.4430540  65.0241193  92.8529257  79.2230540  65.3941193
  94.1929257  78.8830540  63.7041193  93.5129257  78.8230540  62.8341193
  95.0629257  78.2230540  63.4841193  94.6929257  80.3030540  63.8341193
  93.8429257  81.4330540  63.7541193  92.7929257  81.3030540  63.5441193
  94.3829257  82.7230540  63.6641193  93.7229257  83.5430540  63.4141193
  95.7929257  82.9030540  63.8141193  96.2029257  84.2630540  63.7041193
  95.9029257  84.4930540  62.8241193  96.1229257  80.5030540  63.9841193
  96.9129257  79.7730540  64.0941193  96.6129257  81.8230540  63.8741193
  97.6729257  81.9530540  64.0341193  92.6229257  77.2730540  64.7541193
  91.5129257  77.0830540  65.3041193  93.2529257  76.3430540  63.8941193
  94.1729257  76.5130540  63.5541193  92.6829257  75.0730540  63.4941193
  91.9529257  75.3830540  62.7641193  93.4729257  74.4730540  63.0741193
  91.9429257  74.2130540  64.4441193  90.8429257  73.8030540  64.1641193
  92.5729257  73.9830540  65.6141193  93.5029257  74.3030540  65.7141193
  91.9729257  73.2130540  66.6741193  91.5829257  72.2930540  66.2741193
  93.0729257  72.8430540  67.6741193  93.6429257  73.7530540  67.9541193
  93.7329257  72.0830540  67.2141193  92.6929257  72.2930540  69.0441193
  92.6029257  70.9030540  69.3041193  92.8429257  70.2330540  68.4941193
  92.2029257  70.4330540  70.5641193  92.1829257  69.3830540  70.7841193
  92.0929257  71.3930540  71.5741193  91.8229257  70.9830540  72.5341193
  92.4629257  73.1930540  70.0941193  92.5329257  74.2430540  69.8641193
  92.2129257  72.7630540  71.4041193  92.0729257  73.4030540  72.2541193
  90.7429257  73.9330540  67.2841193  89.7229257  73.3330540  67.6841193
  90.8329257  75.2930540  67.4341193  91.7029257  75.7530540  67.2541193
  89.7129257  76.0730540  68.0141193  89.5229257  75.5830540  68.9541193
  90.1529257  77.4930540  68.2641193  89.2729257  77.9730540  68.7641193
  90.3429257  78.0130540  67.3041193  91.2829257  77.6630540  69.3141193
  91.5229257  78.7430540  69.4241193  92.1129257  77.0830540  68.8641193
  90.8329257  77.0630540  70.6141193  89.6429257  77.1430540  70.9241193
  91.8429257  76.5430540  71.3741193  92.7529257  76.5430540  70.9541193
  91.7929257  76.4430540  72.3641193  88.4529257  75.9630540  67.1841193
  87.3729257  75.5730540  67.6141193  88.5629257  76.2530540  65.8641193
  89.4629257  76.6130540  65.6341193  87.4929257  76.2030540  64.9041193
  86.7529257  76.9230540  65.2241193  88.0129257  76.3730540  63.4041193
  87.2929257  75.9330540  62.6841193  88.9129257  75.7230540  63.3041193
  88.4329257  77.7730540  63.0141193  88.3229257  78.8330540  63.9541193
  87.8829257  78.7630540  64.9441193  88.6929257  79.9830540  63.3441193
  88.5129257  80.8830540  63.6841193  89.0529257  79.7030540  62.0241193
  88.9029257  78.3330540  61.7841193  88.9729257  77.7930540  60.4641193
  88.7529257  76.7530540  60.2841193  89.3229257  78.6630540  59.3941193
  89.3729257  78.2730540  58.3841193  89.5129257  80.5230540  61.0041193
  89.7329257  81.5430540  61.2941193  89.5829257  79.9930540  59.6841193
  89.9129257  80.5930540  58.8441193  86.6829257  74.9130540  64.9441193
  85.4529257  74.9130540  64.7941193  87.3229257  73.7130540  65.0541193
  88.3029257  73.6530540  65.1841193  86.6429257  72.4630540  64.9641193
  85.6829257  72.6530540  64.5141193  87.4929257  71.5530540  64.1341193
  86.8329257  70.7330540  63.7841193  88.4029257  71.1730540  64.6541193
  87.9229257  72.0930540  62.7441193  88.3429257  71.2430540  62.1541193
  88.7329257  72.8530540  62.8141193  86.9129257  72.7830540  61.8641193
  87.4529257  73.0630540  60.9341193  86.6229257  73.6930540  62.4241193
  85.7129257  71.9030540  61.6941193  85.0229257  71.8930540  62.4141193
  85.6629257  70.8230540  60.9041193  86.5529257  70.4830540  60.0241193
  87.3929257  71.0030540  59.9141193  86.2629257  69.8230540  59.3241193
  84.6329257  70.0230540  61.0441193  83.9829257  70.2030540  61.7841193
  84.6029257  69.2030540  60.4641193  86.4929257  71.7430540  66.3641193
  85.8729257  70.6930540  66.3941193  86.9829257  72.4030540  67.4741193
  87.4429257  73.2830540  67.4541193  86.9829257  71.7430540  68.7141193
  86.0029257  71.3430540  68.9141193  88.2029257  70.7030540  68.7941193
  88.0129257  70.1330540  69.7341193  89.1629257  71.2330540  68.9441193
  87.3629257  68.4830540  67.7841193  86.8829257  68.2630540  68.6341193
  88.1929257  69.6330540  67.7141193  87.5529257  67.8130540  66.6341193
  86.9829257  66.9430540  66.2941193  88.3729257  68.4030540  65.8141193
  88.9129257  69.5030540  66.6041193  89.7629257  70.0530540  66.2241193
  87.1929257  72.7330540  69.8141193  87.8629257  72.4730540  70.7841193
  86.5629257  73.9630540  69.8241193  86.0529257  74.3130540  69.0341193
  86.6529257  74.7930540  71.0241193  87.7129257  74.9830540  71.1441193
  85.9129257  76.1530540  70.5341193  84.8529257  75.8930540  70.3541193
  86.2829257  76.4530540  69.5341193  86.1529257  77.3030540  71.3541193
  85.4729257  77.3830540  72.6641193  85.1829257  76.4230540  73.0741193
  85.4629257  78.5130540  73.3541193  85.0229257  78.6230540  74.3341193
  86.0329257  79.7130540  72.8941193  85.9329257  80.6830540  73.3741193
  86.8229257  78.4730540  70.9041193  87.2729257  78.4630540  69.9241193
  86.7029257  79.7030540  71.6641193  87.1329257  80.6430540  71.3141193
  86.0529257  74.1330540  72.2841193  84.8529257  73.9630540  72.4341193
  86.8729257  73.9130540  73.2641193  87.7729257  74.3230540  73.1241193
  86.4729257  73.2730540  74.5141193  86.8829257  73.9030540  75.2941193
  85.4029257  73.1630540  74.6241193  87.1329257  71.9630540  74.6641193
  86.9229257  71.3930540  75.7841193  87.8629257  71.4230540  73.6741193
  88.0729257  71.8830540  72.8141193  88.6229257  70.1730540  73.8141193
  87.9429257  69.4230540  74.1841193  89.1029257  69.6930540  72.3941193
  89.6329257  68.7230540  72.4641193  88.2529257  69.5030540  71.7041193
  89.8229257  70.3830540  71.8941193  89.8129257  70.3330540  74.7041193
  90.4529257  71.3530540  74.7541193  90.2129257  69.3230540  75.4841193
  89.7129257  68.4630540  75.3741193  91.5129257  69.2430540  76.1441193
  91.6429257  70.2230540  76.5741193  91.6229257  68.2830540  77.3141193
  92.6529257  68.1930540  77.7141193  91.3129257  67.2930540  76.8941193
  90.6029257  68.5130540  78.5041193  90.4729257  67.5230540  78.9841193
  89.5829257  68.7930540  78.1641193  91.2429257  69.3430540  79.5841193
  91.5429257  70.5430540  79.2441193  91.3529257  68.8630540  80.6941193
  92.6529257  68.8930540  75.1041193  92.7529257  67.7730540  74.5641193
  93.6229257  69.8330540  74.9241193  93.6029257  70.7230540  75.3641193
  94.6329257  69.6230540  73.9141193  94.1329257  69.0930540  73.1241193
  95.4329257  70.9530540  73.5741193  96.1729257  71.1230540  74.3941193
  94.7629257  71.8330540  73.4041193  96.3129257  70.7130540  72.2941193
  95.8129257  71.0430540  71.0441193  94.8029257  71.3930540  70.9441193
  96.5329257  70.6530540  69.8341193  96.1929257  70.7030540  68.8141193
  97.8429257  70.1230540  70.0241193  98.5929257  69.8930540  68.7941193
  99.5129257  69.9630540  69.0641193  97.5829257  70.1630540  72.4241193
  97.9929257  69.9630540  73.4041193  98.3829257  69.9830540  71.2841193
  99.3429257  69.4830540  71.3241193  95.6829257  68.5330540  74.4341193
  96.1629257  68.6630540  75.5841193  96.0229257  67.5730540  73.5241193
  95.7229257  67.5330540  72.5741193  96.9529257  66.4630540  73.9541193
  97.2729257  66.4730540  74.9841193  96.2829257  65.1130540  73.8041193
  96.8929257  64.2230540  74.0541193  95.8029257  64.8130540  72.5241193
  95.2329257  64.0430540  72.4941193  95.2129257  65.0230540  74.8241193
  94.5529257  64.1630540  74.5541193  95.6429257  64.7330540  75.8041193
  94.6929257  65.9730540  75.0541193  98.2529257  66.5630540  73.1441193
  99.2929257  66.9930540  73.6041193  98.1929257  66.1230540  71.8641193
  97.3929257  65.6230540  71.5341193  99.3129257  66.2930540  70.9341193
  99.6929257  67.2930540  71.0541193 100.3629257  65.1530540  71.0741193
 100.6929257  65.3830540  72.1141193 101.2429257  65.3230540  70.4141193
  99.7829257  63.8330540  70.8141193  99.0329257  63.5730540  69.9141193
 100.0829257  62.8630540  71.6941193 100.6329257  63.0630540  72.5041193
  99.7829257  61.9530540  71.4041193  98.6929257  66.4930540  69.5941193
  97.4729257  66.3930540  69.4041193  99.5729257  66.8230540  68.5841193
 100.4229257  67.2630540  68.8641193  99.0829257  66.8330540  67.2041193
  98.2329257  67.4930540  67.0941193 100.1629257  67.5030540  66.2941193
 100.3129257  68.5530540  66.6241193  99.7529257  67.5530540  65.2641193
 101.5129257  66.7430540  66.2541193 101.2529257  65.7730540  65.7741193
 101.8429257  66.6330540  67.3041193 102.6729257  67.6730540  65.3841193
 103.9229257  66.4130540  65.3141193 104.6529257  66.5130540  64.4841193
 104.3629257  66.4130540  66.3241193 103.3829257  65.4630540  65.1141193
  98.6229257  65.5030540  66.6141193  97.8829257  65.6030540  65.6541193
  98.9829257  64.3130540  67.0841193  99.4329257  64.2330540  67.9741193
  98.6329257  63.0130540  66.5341193  98.5729257  63.1130540  65.4541193
  99.6629257  61.8830540  66.8341193  99.3229257  61.0030540  66.2441193
  99.7429257  61.5830540  67.9041193 101.0729257  62.2730540  66.2641193
 101.3329257  62.3830540  64.9341193 100.5829257  62.3430540  64.1541193
 102.5629257  62.7030540  64.4541193 102.7729257  62.8030540  63.4041193
 103.5729257  62.9730540  65.3941193 104.8829257  63.3030540  64.9141193
 105.3729257  63.5930540  65.6841193 102.0729257  62.5730540  67.1941193
 101.9229257  62.6730540  68.2541193 103.3429257  63.0330540  66.8141193
 104.1229257  63.2030540  67.5241193  97.1729257  62.6630540  66.8241193
  96.4629257  61.8030540  66.2341193  96.6129257  63.1830540  67.9141193
  97.0829257  63.9830540  68.2641193  95.3829257  62.7930540  68.6341193
  95.4529257  61.7130540  68.7141193  95.2929257  63.3330540  70.0641193
  94.8229257  64.3230540  70.2641193  96.3329257  63.3230540  70.4641193
  94.4829257  62.3730540  70.9441193  93.9929257  61.3730540  70.4041193
  94.2929257  62.6930540  72.1641193  94.1029257  63.1530540  67.8541193
  94.0629257  64.0930540  67.0641193  93.1029257  62.2730540  67.9741193
  93.2429257  61.5830540  68.6841193  91.9229257  62.2330540  67.2041193
  91.9829257  62.8430540  66.3141193  91.6729257  60.7830540  66.7541193
  91.7929257  60.1830540  67.6841193  92.5029257  60.4730540  66.0841193
  90.3929257  60.4530540  66.0041193  89.7929257  61.3730540  65.4641193
  89.9729257  59.2030540  66.1241193  90.5829257  58.4930540  66.4841193
  89.1029257  58.9530540  65.6941193  90.7829257  62.7530540  67.9941193
  90.1829257  62.0130540  68.7841193  90.3829257  64.0230540  67.8041193
  90.8529257  64.5330540  67.0941193  89.5729257  64.8030540  68.6141193
  89.6229257  64.3630540  69.6041193  90.0629257  66.3130540  68.6641193
  89.4329257  66.9830540  69.2841193  89.9029257  66.7230540  67.6441193
  91.4229257  66.4530540  69.1241193  91.8029257  66.1830540  70.4741193
  91.1329257  65.8530540  71.2541193  93.0829257  66.5030540  70.9341193
  93.3329257  66.3230540  71.9741193  94.0129257  67.0730540  70.0341193
  95.2829257  67.4130540  70.5141193  95.9329257  67.0330540  69.9041193
  92.3829257  66.9130540  68.2141193  92.2629257  67.1630540  67.1741193
  93.6529257  67.2930540  68.7141193  94.4129257  67.6530540  68.0341193
  88.1429257  64.7530540  68.2741193  87.3429257  65.5930540  68.6741193
  87.6929257  63.7530540  67.5141193  88.2029257  62.9830540  67.1341193
  86.3429257  63.5830540  67.0241193  86.2029257  64.4530540  66.4141193
  86.2029257  62.2130540  66.3441193  86.3429257  61.3630540  67.0441193
  87.0929257  62.1130540  65.6841193  84.8629257  61.9830540  65.4941193
  83.9729257  62.3930540  66.0241193  84.7329257  60.8930540  65.3341193
  84.9629257  62.6130540  64.1241193  84.9829257  61.9430540  63.0541193
  84.9029257  63.8630540  64.0641193  85.2529257  63.5630540  68.1141193
  85.3429257  62.8630540  69.1341193  84.3329257  64.5230540  67.9541193
  84.3429257  65.1030540  67.1441193  83.3729257  64.9530540  68.9241193
  82.7929257  65.7230540  68.4541193  82.3929257  63.7630540  69.1441193
  81.5629257  64.0030540  69.8441193  82.9429257  62.9330540  69.6341193
  81.6029257  63.3130540  67.9141193  81.5429257  62.0730540  67.7141193
  80.9729257  64.1030540  67.0241193  80.8829257  65.0830540  67.2141193
  80.5529257  63.7330540  66.1941193  83.7829257  65.5830540  70.2741193
  82.9629257  65.9530540  71.1141193  85.0629257  65.7430540  70.5741193
  85.7329257  65.3630540  69.9341193  85.5029257  66.5530540  71.6841193
  84.9029257  66.3130540  72.5541193  87.0329257  66.2930540  72.0241193
  87.3329257  66.8630540  72.9241193  87.6629257  66.7830540  71.2441193
  87.3229257  64.7930540  72.1541193  88.4129257  64.7330540  72.3741193
  87.3329257  64.0630540  71.3241193  86.5729257  64.1530540  73.3441193
  86.2029257  64.9530540  74.0141193  85.7129257  63.6630540  72.8241193
  87.4129257  63.1530540  74.1041193  87.0129257  62.8230540  75.0941193
  88.2829257  63.7830540  74.3941193  87.7929257  61.8730540  73.4141193
  88.3729257  62.0730540  72.5641193  88.4129257  61.4030540  74.1141193
  86.9329257  61.3130540  73.3341193  85.3129257  68.0630540  71.3041193
  85.6029257  68.4630540  70.1841193  84.7229257  68.8430540  72.2641193
  84.5629257  68.4530540  73.1741193  84.4629257  70.2830540  72.2541193
  84.1429257  70.5230540  73.2541193  85.3529257  70.8330540  71.9741193
  83.4129257  70.6830540  71.2841193  82.6129257  69.9930540  70.6741193
  83.3529257  72.0130540  71.0441193  83.8529257  72.6530540  71.6241193
  82.3029257  72.5430540  70.1241193  81.5529257  71.7930540  69.9141193
  81.6129257  73.8430540  70.6441193  82.3229257  74.6930540  70.7141193
  80.5129257  74.2230540  69.7041193  79.9529257  75.1330540  70.0041193
  80.8129257  74.3930540  68.6441193  79.7629257  73.4130540  69.7041193
  81.2429257  73.7030540  72.1041193  80.3929257  72.9930540  72.1441193
  82.0329257  73.2930540  72.7841193  80.9029257  74.6430540  72.5741193
  83.0229257  72.8830540  68.8341193  83.9329257  73.6330540  68.7441193
  82.5029257  72.2830540  67.7041193  81.7429257  71.6330540  67.7441193
  82.9329257  72.6030540  66.3441193  83.9629257  72.9230540  66.3641193
  82.8329257  71.3330540  65.4141193  81.7929257  70.9430540  65.4941193
  83.5229257  70.6230540  65.9041193  83.1529257  71.3930540  63.9441193
  83.2329257  72.5330540  63.3941193  83.2829257  70.3130540  63.3541193
  82.1829257  73.7630540  65.8141193  81.1229257  73.7030540  65.2541193
  82.7529257  74.8930540  66.0941193  83.6929257  74.8430540  66.4041193
  82.1329257  76.1330540  65.7941193  81.0629257  76.1530540  65.9241193
  82.5629257  77.2430540  66.7541193  81.8629257  77.2730540  67.6141193
  82.4429257  78.1630540  66.1341193  84.0829257  77.3530540  67.1741193
  84.7229257  76.8630540  66.4141193  84.1529257  76.7930540  68.1241193
  84.5929257  78.8130540  67.3741193  85.3929257  79.2930540  66.5841193
  84.1529257  79.3530540  68.5641193  83.6729257  78.7030540  69.1541193
  84.2529257  80.3330540  68.7441193  82.0629257  76.4830540  64.3641193
  81.1829257  77.2330540  63.9141193  83.0229257  75.9630540  63.4741193
  83.7229257  75.2930540  63.6941193  83.0729257  76.1230540  62.0941193
  83.0129257  77.1930540  61.9341193  84.3429257  75.5130540  61.4441193
  84.4929257  74.4130540  61.5241193  85.1929257  76.0030540  61.9741193
  84.5329257  75.8030540  59.9641193  83.7529257  75.2730540  59.3841193
  84.5129257  77.3030540  59.6441193  83.5329257  77.8130540  59.6741193
  85.2229257  77.8430540  60.3041193  84.8929257  77.4630540  58.6041193
  85.8129257  75.2230540  59.6541193  85.9329257  74.1230540  59.7341193
  85.9529257  75.4830540  58.5841193  86.6129257  75.7730540  60.1941193
  81.9129257  75.4730540  61.3841193  81.2529257  76.1330540  60.6341193
  81.5429257  74.2630540  61.7341193  82.1529257  73.6030540  62.1641193
  80.2629257  73.7330540  61.2541193  80.1629257  73.7630540  60.1741193
  80.1029257  72.1930540  61.5841193  79.0329257  71.9530540  61.7241193
  80.5929257  71.9730540  62.5641193  80.7929257  71.3430540  60.5041193
  81.9029257  71.3330540  60.5641193  80.4829257  71.6830540  59.4941193
  80.3829257  69.8430540  60.7241193  80.5429257  69.4530540  61.7441193
  79.3029257  69.8730540  60.4541193  81.0829257  68.9830540  59.6841193
  82.1629257  69.1230540  59.8741193  80.8129257  69.5330540  58.7541193
  80.6729257  67.6430540  59.6541193  80.8729257  67.2530540  58.7141193
  81.1429257  67.0130540  60.3441193  79.6529257  67.5030540  59.7541193
  78.9729257  74.4930540  61.6841193  78.0229257  74.7930540  60.9141193
  78.9429257  74.9230540  62.9341193  79.8029257  74.8230540  63.4441193
  77.8329257  75.7530540  63.5541193  76.8629257  75.2830540  63.4641193
  77.9829257  75.9930540  65.1141193  77.2029257  76.7130540  65.4441193
  78.9229257  76.5230540  65.3541193  77.7629257  74.7330540  65.8941193
  77.3229257  73.6930540  65.4241193  77.9629257  74.8830540  67.2541193
  78.3229257  75.6730540  67.7441193  77.9429257  74.0330540  67.7741193
  77.6429257  77.0730540  62.8341193  76.5329257  77.4830540  62.6041193
  78.7529257  77.9030540  62.5141193  79.6729257  77.7230540  62.8441193
  78.6229257  79.0830540  61.7541193  77.8929257  79.6530540  62.3141193
  79.8329257  79.9630540  61.7741193  79.5829257  80.9230540  61.2541193
  80.2029257  80.2630540  63.2341193  79.2129257  80.4730540  63.6941193
  80.6529257  79.4230540  63.8041193  80.8329257  81.1730540  63.3141193
  81.0329257  79.4130540  61.0041193  80.7929257  78.6130540  60.2741193
  81.7729257  79.0230540  61.7341193  81.7629257  80.4930540  60.2141193
  82.0429257  81.3530540  60.8541193  82.6529257  80.0930540  59.6741193
  81.0629257  80.8430540  59.4341193  78.0129257  78.9130540  60.3941193
  77.2429257  79.7530540  59.9641193  78.4329257  77.8630540  59.7341193
  79.1929257  77.3130540  60.0741193  77.8729257  77.4030540  58.4641193
  77.9029257  78.2530540  57.7941193  78.7129257  76.2530540  57.9641193
  78.9029257  75.5130540  58.7641193  78.0129257  75.5430540  56.7441193
  77.0329257  75.1330540  57.0641193  77.7929257  76.2730540  55.9341193
  78.6429257  74.7330540  56.3141193  80.1129257  76.7430540  57.5641193
  80.5329257  77.2230540  58.4641193  79.9529257  77.2830540  56.6041193
  81.0229257  75.6330540  57.1841193  80.9229257  75.2030540  56.1641193
  82.0629257  76.0330540  57.2041193  81.0829257  74.8230540  57.9341193
  76.4029257  76.9930540  58.5441193  75.6429257  77.3230540  57.6741193
  75.9929257  76.2330540  59.5641193  76.7329257  75.8930540  60.1341193
  74.6129257  76.0430540  59.8541193  74.1629257  75.5330540  59.0141193
  74.5129257  75.1530540  61.1441193  75.1929257  75.5230540  61.9441193
  74.9529257  74.2030540  60.7641193  73.1729257  74.9430540  61.8241193
  72.9929257  74.8030540  62.9941193  72.0829257  74.9230540  60.9341193
  72.1529257  74.7830540  59.9441193  71.2029257  74.7030540  61.3541193
  73.7929257  77.4030540  60.1441193  72.6829257  77.6530540  59.6241193
  74.3929257  78.2830540  60.9641193  75.1829257  77.9430540  61.4741193
  73.7529257  79.5630540  61.2041193  72.7429257  79.3530540  61.5241193
  74.4229257  80.3330540  62.4141193  73.9629257  81.3430540  62.5041193
  75.5229257  80.5030540  62.4041193  74.2729257  79.6630540  63.7741193
  74.8129257  78.6930540  63.8741193  74.7029257  80.6530540  64.8841193
  75.8029257  80.7130540  65.0441193  74.3429257  81.6630540  64.6041193
  74.1329257  80.4430540  65.8041193  72.7629257  79.2830540  64.0241193
  72.5429257  78.8730540  65.0241193  72.1429257  80.1930540  63.8841193
  72.4429257  78.4930540  63.3141193  73.5629257  80.4830540  59.9341193
  72.5629257  81.1230540  59.7241193  74.5729257  80.5430540  59.0841193
  75.4129257  80.0230540  59.2041193  74.4129257  81.3630540  57.9041193
  74.0729257  82.3330540  58.2541193  75.6829257  81.3930540  57.1041193
  76.1229257  80.3730540  57.0441193  75.5629257  81.9430540  55.6741193
  75.1329257  82.9730540  55.5841193  76.5529257  82.1530540  55.2241193
  74.9229257  81.2730540  55.0641193  76.7129257  82.3430540  57.8041193
  76.7229257  82.0730540  58.8841193  76.3329257  83.3930540  57.7341193
  78.1529257  82.0630540  57.4241193  78.8329257  82.8430540  57.8341193
  78.4829257  81.0530540  57.7441193  78.1529257  82.1530540  56.3141193
  73.2429257  80.8530540  56.9341193  72.4429257  81.7130540  56.5141193
  73.1329257  79.5830540  56.6341193  73.8129257  78.9830540  57.0541193
  72.0129257  78.9530540  56.0341193  71.9129257  79.3130540  55.0241193
  72.3029257  77.4730540  55.9941193  71.3729257  77.0330540  55.5941193
  72.4929257  77.1030540  57.0241193  73.4429257  77.1330540  55.0241193
  74.2829257  77.8330540  55.2341193  73.0929257  77.3030540  53.9841193
  73.8729257  75.7430540  55.3241193  74.0329257  75.6330540  56.4141193
  72.9929257  75.1130540  55.0341193  75.1629257  75.3730540  54.5341193
  76.0829257  75.9330540  54.8041193  75.0429257  75.4030540  53.4341193
  75.5129257  73.9430540  54.8141193  75.4229257  73.7430540  55.8341193
  74.8929257  73.2530540  54.3341193  76.4329257  73.6730540  54.4141193
  70.6529257  79.1530540  56.7241193  69.6629257  79.6730540  56.1441193
  70.5129257  78.8430540  58.0441193  71.3329257  78.6930540  58.5841193
  69.2229257  78.7030540  58.6741193  68.3729257  78.8330540  58.0241193
  69.1029257  77.2930540  59.3841193  68.0429257  77.1130540  59.6841193
  69.7729257  76.9730540  60.2141193  69.2829257  76.0930540  58.4041193
  70.0929257  75.1430540  58.5841193  68.5629257  76.1630540  57.2841193
  67.9829257  76.9330540  57.0241193  68.7129257  75.3630540  56.6841193
  68.8429257  79.7930540  59.6341193  67.7229257  79.8730540  60.1341193
  69.7629257  80.6730540  59.8641193  70.6729257  80.5330540  59.4841193
  69.5829257  81.8430540  60.6941193  68.5229257  82.0530540  60.7441193
  69.9829257  81.5630540  62.1141193  71.0729257  81.4130540  62.2141193
  69.4029257  80.6730540  62.4441193  69.4629257  82.5930540  63.0941193
  68.7929257  83.6030540  62.7741193  69.8229257  82.4030540  64.3241193
  70.3729257  83.0830540  60.1041193  71.2629257  83.6830540  60.7141193
  70.0429257  83.5430540  58.9241193  68.7429257  83.2330540  58.2041193
  68.7129257  82.2130540  57.7541193  68.0029257  83.2630540  59.0141193
  70.8029257  84.5230540  58.1541193  71.8529257  84.2530540  58.0641193
  70.1029257  84.5730540  56.8241193  70.4629257  83.7930540  56.1141193
  70.2629257  85.5530540  56.3141193  68.6229257  84.2830540  57.1841193
  68.0229257  84.0830540  56.2641193  68.0929257  85.1730540  57.5741193
  70.7029257  85.8630540  58.9641193  71.4329257  86.7630540  58.6541193
  69.6629257  86.0830540  59.7941193  69.0229257  85.3330540  59.9341193
  69.5429257  87.2730540  60.6641193  69.9729257  88.1730540  60.2341193
  68.0729257  87.6230540  60.9141193  67.9429257  88.4730540  61.6141193
  67.3129257  86.5230540  61.3441193  67.4829257  86.4230540  62.2841193
  67.4129257  88.0730540  59.5641193  66.3929257  88.3930540  59.8541193
  68.0229257  88.8430540  59.0541193  67.3029257  87.1830540  58.9041193
  70.2529257  87.2530540  62.0541193  70.2329257  88.2530540  62.7941193
  70.9929257  86.1730540  62.3241193  70.8929257  85.4230540  61.6741193
  71.8629257  86.0430540  63.5641193  71.1329257  86.1730540  64.3441193
  72.4229257  84.6330540  63.7541193  73.1529257  84.4130540  62.9441193
  71.6229257  83.8830540  63.5741193  73.0929257  84.3530540  64.9841193
  72.6229257  83.6230540  65.4041193  73.0129257  86.9830540  63.7641193
  73.9029257  87.2730540  62.9541193  73.0429257  87.5730540  65.0041193
  72.2129257  87.5530540  65.5541193  73.9329257  88.5930540  65.5541193
  74.5729257  88.9030540  64.7341193  73.1729257  89.8130540  66.0741193
  73.8629257  90.5830540  66.4941193  72.5029257  89.5030540  66.9041193
  72.2429257  90.5330540  65.0041193  71.3429257  89.9330540  64.7441193
  72.8829257  90.6230540  64.1041193  71.8329257  91.9730540  65.3141193
  71.3629257  92.4030540  64.4041193  72.7229257  92.4930540  65.7341193
  70.8729257  91.6830540  66.4841193  71.1729257  91.7530540  67.4341193
  69.5429257  91.7330540  66.3541193  68.8729257  91.6630540  65.2341193
  69.3829257  91.4430540  64.4041193  67.8729257  91.7430540  65.3141193
  68.7629257  91.9330540  67.4041193  69.1829257  92.3230540  68.2141193
  67.8029257  92.0030540  67.1341193  75.0029257  87.9330540  66.3841193
  75.8829257  88.5830540  66.9541193  75.0729257  86.6130540  66.3641193
  74.4229257  86.2430540  65.7041193  75.9029257  85.6930540  67.0041193
  76.5529257  86.2930540  67.6141193  74.9929257  84.8430540  67.9941193
  75.6029257  84.1830540  68.6541193  74.3929257  84.2230540  67.3041193
  74.0629257  85.7030540  69.0241193  73.3729257  86.2730540  68.3741193
  74.7929257  86.3530540  69.5641193  73.1429257  84.7630540  69.8341193
  73.7329257  84.1630540  70.5741193  72.6229257  84.0530540  69.1641193
  72.2429257  85.6030540  70.6041193  72.3029257  86.5930540  70.6241193
  71.1529257  85.2430540  71.2141193  70.8029257  83.9630540  71.3841193
  71.3129257  83.2930540  70.8441193  69.8929257  83.8230540  71.7841193
  70.4929257  86.1430540  71.8941193  70.7729257  87.0930540  71.9641193
  69.7629257  85.8030540  72.4941193  76.7329257  84.8030540  66.1141193
  77.3729257  83.8330540  66.5441193  76.7529257  85.1130540  64.7441193
  76.3129257  85.8230540  64.2141193  77.5929257  84.2930540  63.8841193
  77.6029257  83.2930540  64.3041193  77.1629257  84.3430540  62.4041193
  77.5529257  85.2530540  61.9041193  77.7829257  83.0930540  61.6941193
  77.3129257  82.1630540  62.0741193  77.5529257  83.3530540  60.6441193
  78.8829257  82.9430540  61.6041193  75.5929257  84.2430540  62.2641193
  75.0529257  85.1230540  62.6841193  75.2129257  83.2930540  62.6941193
  75.1529257  84.1230540  60.8141193  75.7829257  84.7530540  60.1541193
  75.3129257  83.0730540  60.5041193  74.0629257  84.3230540  60.6941193
  79.0629257  84.7730540  63.8941193  79.7029257  85.4130540  63.0141193
  79.7229257  84.4030540  64.9541193  79.1929257  83.9430540  65.6641193
  81.1029257  84.5330540  65.3041193  81.4929257  85.1130540  64.4841193
  81.2529257  85.2230540  66.7141193  82.3129257  85.1430540  67.0541193
  80.5629257  84.8130540  67.4741193  80.9529257  86.7130540  66.6041193
  81.2629257  87.1230540  65.6241193  79.4029257  87.1130540  66.8041193
  79.0529257  86.6830540  67.7641193  79.3429257  88.2230540  66.7541193
  78.8629257  86.6230540  65.9641193  81.7929257  87.4630540  67.6641193
  81.6229257  88.5630540  67.6341193  81.5329257  87.1730540  68.7041193
  82.8529257  87.2130540  67.4741193  81.7829257  83.2130540  65.3241193
  81.4229257  82.1630540  65.9241193  82.9829257  83.3130540  64.7941193
  83.2629257  84.2030540  64.4341193  84.0129257  82.2330540  64.8141193
  83.6429257  81.4330540  65.4441193  84.2529257  81.7830540  63.3141193
  84.8229257  82.6030540  62.8441193  83.2429257  81.6630540  62.8641193
  85.1229257  80.5330540  63.0741193  86.0229257  80.6730540  63.7041193
  84.2529257  79.3230540  63.5441193  83.2629257  79.3230540  63.0541193
  84.6729257  78.3130540  63.3241193  84.2229257  79.4330540  64.6441193
  85.5829257  80.4930540  61.5841193  85.9129257  81.5230540  61.3141193
  86.4529257  79.8230540  61.4541193  84.8229257  80.1430540  60.8641193
  85.3529257  82.7230540  65.4141193  85.7629257  83.8730540  65.2441193
  85.9729257  81.9930540  66.3341193  85.7529257  81.0230540  66.4641193
  86.8929257  82.5430540  67.3141193  87.3929257  83.4530540  67.0041193
  86.2529257  82.9730540  68.6941193  85.8929257  82.0830540  69.2541193
  85.3229257  83.5630540  68.5441193  87.2729257  83.8630540  69.9141193
  87.9729257  82.8730540  70.4441193  88.0929257  81.7030540  67.7541193
  87.9329257  80.5430540  68.1941193  89.3229257  82.1930540  67.5741193
  89.5629257  83.0730540  67.1541193  90.5529257  81.4230540  67.6941193
  90.4429257  80.3530540  67.6641193  91.4829257  81.8530540  66.5541193
  91.0029257  81.4630540  65.6341193  91.5329257  82.9630540  66.4841193
  92.4829257  81.3830540  66.7041193  91.2629257  81.7730540  68.9941193
  92.3429257  81.2730540  69.3441193  90.6929257  82.6830540  69.7741193
  89.8429257  83.1230540  69.4641193  91.2329257  83.1330540  71.0641193
  92.2229257  82.7330540  71.1741193  91.1029257  84.6930540  71.1741193
  90.0729257  85.0630540  71.0241193  91.6629257  84.9930540  70.2641193
  91.7129257  85.3430540  72.3941193  91.0129257  85.6030540  73.5841193
  89.9829257  85.3130540  73.7741193  91.8429257  86.1730540  74.4741193
  91.4329257  86.6730540  75.2041193  93.0529257  86.3330540  73.8941193
  93.0229257  85.8430540  72.5541193  94.1429257  86.0030540  71.7441193
  94.1029257  85.7430540  70.7041193  95.3229257  86.5030540  72.2941193
  96.2429257  86.4530540  71.7441193  94.1229257  86.8730540  74.3941193
  94.1929257  87.1430540  75.4441193  95.3429257  86.9630540  73.6341193
  96.2929257  87.2330540  74.0641193  90.3829257  82.4930540  72.1341193
  89.3229257  83.0230540  72.4641193  90.8829257  81.4430540  72.7841193
  91.6629257  80.9230540  72.4341193  90.2929257  80.8330540  73.9241193
  89.4129257  81.3630540  74.2441193  90.0029257  79.3630540  73.6841193
  91.0029257  78.9030540  73.5141193  89.2929257  79.1730540  72.8441193
  89.4329257  78.6830540  74.9141193  89.4529257  79.1430540  76.0641193
  88.8129257  77.5230540  74.7141193  89.0929257  76.9830540  73.9141193
  88.4629257  77.0630540  75.5241193  91.2329257  81.0530540  75.0541193
  92.3929257  80.5830540  75.1641193  90.8129257  81.8730540  76.1241193
  89.8929257  82.1930540  75.9241193  91.6029257  82.3430540  77.3141193
  92.3829257  82.9430540  76.8841193  90.6429257  83.2830540  78.1741193
  89.6729257  82.7630540  78.0841193  91.0529257  83.6030540  79.6241193
  90.9229257  82.6330540  80.1441193  92.0929257  83.9930540  79.6241193
  90.4829257  84.4330540  80.0941193  90.4429257  84.5930540  77.4241193
  91.4229257  85.0930540  77.3241193  90.0629257  84.4630540  76.3841193
  89.7929257  85.3330540  77.9341193  92.2229257  81.2530540  78.1541193
  93.3529257  81.2830540  78.5941193  91.6029257  80.1430540  78.4241193
  90.6329257  80.0830540  78.1841193  92.2129257  78.9030540  78.9241193
  92.7029257  79.2330540  79.8241193  91.0529257  77.9930540  79.3641193
  90.4629257  77.8430540  78.4341193  90.5729257  78.4630540  80.2441193
  91.4329257  76.5330540  79.6741193  92.1029257  76.5930540  80.5541193
  91.8729257  76.0530540  78.7741193  90.2329257  75.7230540  79.8941193
  89.5129257  76.1730540  80.6141193  89.5429257  75.7430540  79.0241193
  90.3829257  74.2730540  80.1741193  89.3629257  73.8330540  80.2641193
  90.9429257  74.0430540  81.1141193  91.0129257  73.5130540  79.0841193
  91.9729257  73.8330540  78.8641193  90.9429257  72.4830540  79.2541193
  90.4629257  73.5930540  78.2141193  93.3029257  78.1830540  78.1741193
  94.1629257  77.5830540  78.7941193  93.3129257  78.2530540  76.8041193
  92.6829257  78.7830540  76.2441193  94.3729257  77.5930540  75.9641193
  94.7529257  76.7130540  76.4641193  93.6029257  77.2330540  74.6741193
  94.2129257  76.9230540  73.8041193  92.9829257  78.1030540  74.3441193
  92.6129257  75.9530540  74.7841193  92.8829257  75.1430540  75.6941193
  91.6529257  75.9730540  74.0741193  95.5729257  78.4930540  75.5341193
  96.5029257  77.9130540  74.9641193  95.5629257  79.8030540  75.9241193
  94.7829257  80.2430540  76.3741193  96.5929257  80.7230540  75.4541193
  96.5229257  80.5630540  74.3941193  96.4529257  82.2530540  75.9941193
  97.1429257  82.9030540  75.4241193  96.8229257  82.1430540  77.0341193
  95.0329257  82.8130540  75.7941193  94.3229257  82.0330540  76.1441193
  94.7729257  84.0830540  76.7041193  93.7029257  84.3830540  76.6641193
  95.0429257  83.9730540  77.7741193  95.2529257  84.9730540  76.2241193
  94.7829257  83.1030540  74.2841193  94.7129257  82.1030540  73.8141193
  93.7929257  83.5430540  74.0641193  95.6229257  83.6430540  73.7841193
  98.0529257  80.3330540  75.7341193  98.9129257  80.3230540  74.8741193
  98.4629257  79.9730540  76.9841193  97.7929257  80.0630540  77.7141193
  99.8129257  79.5330540  77.3241193 100.5129257  80.2430540  76.9141193
  99.9429257  79.4830540  78.8141193 100.9629257  79.1130540  79.0341193
  99.2129257  78.8930540  79.3941193  99.7929257  80.9230540  79.3341193
 100.1329257  81.8730540  78.4541193  99.5529257  81.1130540  80.5541193
 100.2529257  78.3030540  76.6041193 101.4529257  77.9930540  76.4141193
  99.2829257  77.3230540  76.3441193  98.3729257  77.5230540  76.7041193
  99.5429257  76.0430540  75.6941193 100.4129257  75.5930540  76.1641193
  98.2529257  75.1230540  75.9141193  98.3129257  74.2730540  75.2041193
  97.3629257  75.7030540  75.5941193  98.0929257  74.6230540  77.3541193
  98.3829257  75.4930540  77.9941193  98.9129257  73.8930540  77.5041193
  96.7229257  74.1930540  77.7741193  96.0829257  74.8530540  78.6041193
  96.3329257  73.0230540  77.2441193  96.9929257  72.4430540  76.7741193
  95.3729257  72.7530540  77.2741193  99.8229257  76.2330540  74.2041193
 100.4029257  75.3130540  73.5941193  99.3129257  77.3130540  73.5641193
  98.6829257  77.9930540  73.9441193  99.6029257  77.6730540  72.1741193
  99.2129257  76.9430540  71.4841193  98.7829257  78.8730540  71.7541193
  99.0929257  79.1530540  70.7241193  98.9429257  79.7530540  72.4141193
  97.2229257  78.6630540  71.7541193  96.9529257  78.3730540  72.7941193
  96.8729257  77.8030540  71.1441193  96.3029257  80.1930540  71.6841193
  94.6229257  79.6030540  71.8041193  93.8429257  80.3930540  71.8841193
  94.4329257  79.0130540  70.8841193  94.5129257  78.9230540  72.6841193
 101.0829257  77.8630540  71.7641193 101.8029257  78.3730540  72.5841193
 101.4929257  77.5330540  70.5641193 101.0029257  76.8930540  69.9741193
 102.7929257  77.8830540  70.0841193 103.5329257  77.5630540  70.8041193
 103.1129257  77.3830540  68.6241193 103.4929257  76.3330540  68.6341193
 102.2429257  77.5430540  67.9541193 103.9429257  78.0030540  68.2241193
 102.9629257  79.4330540  70.0241193 103.8229257  80.0430540  70.5741193
 101.9229257  80.0930540  69.3641193 101.3429257  79.4730540  68.8341193
 101.7029257  81.5130540  69.2141193 102.4029257  81.9930540  69.8841193
 102.1129257  81.9730540  67.7341193 101.3229257  81.5230540  67.0941193
 103.0929257  81.5630540  67.4241193 102.2429257  83.4830540  67.5141193
 101.3229257  83.9430540  67.9241193 103.5529257  84.0930540  68.0641193
 104.5029257  83.7930540  67.5741193 103.5029257  85.1830540  67.8341193
 103.5729257  83.7830540  69.1241193 102.2529257  83.7930540  66.0041193
 103.3029257  83.7130540  65.6641193 101.5429257  83.1030540  65.4941193
 102.1029257  84.8830540  65.8541193 100.2029257  81.7530540  69.5841193
  99.3429257  81.0430540  69.0541193  99.8129257  82.6930540  70.4641193
 100.5629257  83.0430540  71.6641193 101.2029257  82.2030540  72.0041193
 101.2629257  83.8730540  71.4041193  98.4729257  83.2830540  70.5041193
  97.7229257  82.5230540  70.6841193  98.5129257  84.2730540  71.7541193
  97.4629257  84.2930540  72.1041193  98.8729257  85.3030540  71.5541193
  99.4629257  83.6030540  72.6741193  98.9129257  82.7530540  73.1341193
  99.8829257  84.3030540  73.4141193  98.0729257  83.9430540  69.2841193
  98.9629257  84.5630540  68.7341193  96.8629257  83.6730540  68.7041193
  95.6229257  83.4530540  69.4741193  95.4829257  82.3630540  69.6741193
  95.5629257  84.0530540  70.4041193  96.5629257  84.1430540  67.3541193
  97.2329257  83.6530540  66.6641193  95.1629257  83.5930540  67.2241193
  95.2329257  82.4930540  67.0841193  94.5729257  84.0530540  66.4041193
  94.4829257  83.8630540  68.5641193  93.5529257  83.3130540  68.8441193
  94.2729257  84.9530540  68.6641193  96.6529257  85.6230540  67.1441193
  96.3129257  86.3730540  68.0941193  97.0829257  86.0630540  66.0041193
  97.6229257  85.4730540  65.4241193  96.8929257  87.4030540  65.4741193
  97.1829257  88.0330540  66.2941193  97.7929257  87.7530540  64.2741193
  97.6029257  88.8130540  64.0241193  97.5429257  87.0930540  63.4141193
  99.6229257  87.5130540  64.5841193  99.5929257  86.2730540  64.1141193
  95.4529257  87.7230540  65.2141193  94.9129257  88.7230540  65.6341193
  94.6829257  86.8130540  64.5941193  95.1729257  85.9730540  64.3841193
  93.2829257  87.0130540  64.2341193  93.1229257  88.0630540  64.0441193
  92.9329257  86.3330540  62.8941193  91.9529257  86.6730540  62.4841193
  92.7029257  85.2630540  63.0941193  94.8629257  85.3030540  61.6041193
  94.0729257  86.4430540  61.8541193  95.6829257  85.6530540  60.6041193
  96.4229257  85.0830540  60.0441193  95.5229257  86.9730540  60.3041193
  96.1329257  87.5030540  59.7041193  94.4929257  87.5130540  61.0541193
  94.3429257  88.5830540  61.0941193  92.4029257  86.5430540  65.3941193
  92.4129257  85.3830540  65.7641193  91.5529257  87.3530540  66.0141193
  91.3929257  88.2430540  65.5841193  90.7529257  87.0330540  67.1441193
  91.2829257  86.3030540  67.7341193  90.4829257  88.2830540  67.9641193
  89.8329257  88.9730540  67.3941193  89.6129257  87.7830540  69.1841193
  88.5629257  87.4730540  68.9741193  90.1229257  86.8930540  69.5941193
  89.5029257  88.6130540  69.9041193  91.8229257  89.0030540  68.4341193
  91.4929257  89.8930540  69.0041193  92.2929257  89.3130540  67.4741193
  92.8129257  88.1530540  69.1741193  93.6429257  88.7630540  69.5941193
  92.1629257  87.7730540  69.9841193  93.3329257  87.3230540  68.6441193
  89.5329257  86.2930540  66.7241193  89.1829257  85.2930540  67.3841193
  88.8229257  86.9130540  65.7241193  89.2629257  87.5630540  65.1141193
  87.4729257  86.4930540  65.4841193  87.5329257  85.4130540  65.4541193
  86.4429257  86.8930540  66.5741193  86.8329257  86.5530540  67.5541193
  85.6529257  86.1130540  66.5341193  86.0329257  88.3430540  66.6741193
  86.9429257  88.9530540  66.4741193  84.8829257  88.7930540  65.7841193
  85.2629257  88.7530540  64.7441193  84.0929257  88.0230540  65.7241193
  84.6029257  89.8330540  66.0841193  85.6829257  88.5730540  68.1941193
  85.0729257  89.4730540  68.3641193  85.1729257  87.6830540  68.6241193
  86.6329257  88.6730540  68.7641193  87.0629257  86.9930540  64.1241193
  87.6529257  87.9630540  63.5841193  86.0229257  86.3530540  63.5041193
  85.5129257  85.7130540  64.0741193  85.4529257  86.5530540  62.2241193
  85.8129257  87.5230540  61.9141193  85.9029257  85.6230540  61.0441193
  85.2729257  85.8530540  60.1541193  85.5929257  84.6230540  61.3941193
  87.6329257  85.8130540  60.5041193  87.3629257  86.9630540  59.8941193
  83.9829257  86.4830540  62.4941193  83.4529257  85.4930540  63.0941193
  83.2429257  87.5630540  62.2241193  83.7929257  88.3630540  61.9841193
  81.7829257  87.6730540  62.2041193  81.4429257  86.7430540  62.6341193
  81.3129257  88.8630540  63.2041193  81.8029257  89.8130540  62.9041193
  81.6429257  88.7230540  64.2541193  79.8529257  89.2130540  63.1341193
  79.2729257  88.2730540  63.0241193  79.5329257  89.7630540  62.2241193
  79.3729257  90.0230540  64.3641193  79.9529257  90.9930540  64.8341193
  78.1729257  89.6430540  64.9341193  77.5729257  88.9930540  64.4741193
  77.8929257  90.2530540  65.6741193  81.0729257  87.7930540  60.8841193
  81.4129257  88.5830540  60.0641193  79.9729257  87.0730540  60.7641193
  79.7329257  86.4030540  61.4741193  79.3529257  86.9230540  59.4541193
  79.9729257  87.3630540  58.6841193  79.2529257  85.4830540  59.0041193
  78.4629257  85.2130540  58.2641193  78.8729257  84.8330540  59.8241193
  80.6029257  84.8630540  58.6441193  81.1229257  85.0330540  57.3641193
  80.4529257  85.4730540  56.6441193  82.3529257  84.5530540  57.0341193
  82.7129257  84.5530540  56.0141193  83.1529257  83.8430540  57.9441193
  84.1029257  83.3830540  57.7041193  81.4629257  84.3530540  59.6741193
  81.0129257  84.1730540  60.6341193  82.6829257  83.8030540  59.2741193
  83.2729257  83.3830540  60.0841193  78.0729257  87.6430540  59.4241193
  77.2829257  87.5130540  60.3441193  77.7029257  88.2230540  58.2841193
  78.1829257  88.3130540  57.4141193  76.4329257  88.9530540  58.0941193
  75.6929257  88.8230540  58.8641193  76.6729257  90.5530540  58.0241193
  77.5429257  90.7530540  57.3541193  76.8629257  90.7530540  59.0941193
  75.5229257  91.4830540  57.5641193  74.2529257  91.4730540  58.1641193
  74.1329257  90.8730540  59.0541193  73.2529257  92.4630540  57.7741193
  72.2629257  92.5130540  58.2041193  73.5629257  93.2730540  56.6641193
  72.7229257  94.2330540  56.1441193  71.8629257  94.2030540  56.5741193
  75.7629257  92.1930540  56.4241193  76.7329257  92.1930540  55.9441193
  74.8129257  93.1530540  55.9841193  75.0629257  93.8430540  55.1841193
  75.8129257  88.4330540  56.7341193  76.6029257  88.0330540  55.8641193
  74.4829257  88.5230540  56.5341193  73.9029257  88.8430540  57.2841193
  73.8329257  88.0230540  55.3441193  74.4629257  88.0330540  54.4741193
  73.2429257  86.6130540  55.4441193  72.4329257  86.6830540  56.2041193
  72.5329257  86.2930540  54.1141193  73.2229257  86.4930540  53.2641193
  72.3129257  85.2030540  54.1241193  71.5929257  86.8730540  53.9941193
  74.2829257  85.5230540  55.6341193  74.8329257  85.7130540  56.5741193
  73.7429257  84.5530540  55.7141193  74.9529257  85.4430540  54.7541193
  72.6429257  88.9430540  55.0341193  71.7029257  89.0730540  55.8141193
  72.6929257  89.4630540  53.8041193  73.3729257  89.2030540  53.1141193
  71.5829257  90.2030540  53.2641193  70.6129257  89.9630540  53.6741193
  71.7629257  91.7130540  53.6141193  72.7629257  91.9430540  53.1741193
  71.7029257  91.8930540  54.7041193  70.7629257  92.7430540  53.0841193
  69.4229257  92.7230540  53.3741193  69.1529257  92.0130540  54.1341193
  68.5129257  93.5630540  52.6441193  67.4629257  93.5130540  52.8741193
  68.9629257  94.4730540  51.7041193  68.2729257  95.1330540  51.2041193
  71.2429257  93.7130540  52.1541193  72.2929257  93.6530540  51.8741193
  70.3029257  94.5130540  51.4141193  70.7929257  95.2830540  50.8341193
  71.5229257  89.9730540  51.7741193  72.5429257  89.9830540  51.0941193
  70.3329257  89.7230540  51.2041193  69.6329257  89.6630540  51.9141193
  69.9529257  89.8030540  49.7841193  68.9129257  89.5330540  49.7341193
  70.0829257  91.2630540  49.3641193  71.1529257  91.5830540  49.3441193
  69.6929257  91.9030540  50.1841193  69.4029257  91.6630540  48.1141193
  68.2829257  91.2130540  47.7741193  69.9529257  92.5430540  47.4741193
  70.7629257  88.7630540  48.9441193  71.2129257  89.0130540  47.8541193
  70.9329257  87.5230540  49.5041193  70.5729257  87.3030540  50.4041193
  71.6529257  86.4430540  48.8741193  71.4529257  85.6830540  49.6141193
  71.2629257  86.3930540  47.8641193  73.1829257  86.7530540  48.8441193
  73.9329257  86.1730540  48.0741193  73.6229257  87.7330540  49.6441193
  73.0129257  88.2830540  50.2041193  75.0129257  88.0330540  49.6841193
  75.5929257  87.2630540  49.1941193  75.1929257  89.4630540  49.1241193
  76.2629257  89.6930540  49.3141193  74.5229257  90.1730540  49.6441193
  75.0029257  89.7630540  47.5641193  74.2129257  89.1230540  47.1041193
  75.9629257  89.3530540  47.1841193  74.9129257  91.2330540  47.1641193
  75.6329257  91.6930540  47.8641193  75.2229257  91.4630540  46.1241193
  73.5729257  92.0230540  47.4841193  73.5329257  93.0330540  47.0241193
  73.4729257  92.1730540  48.5841193  72.4529257  91.3130540  46.8641193
  72.0229257  90.5230540  47.3841193  71.7029257  92.0030540  46.6941193
  72.7929257  90.9030540  45.9641193  75.5329257  88.0730540  51.0841193
  74.9129257  88.5930540  52.0441193  76.7229257  87.4930540  51.2341193
  77.3229257  87.4430540  50.4441193  77.3729257  87.2330540  52.4941193
  76.7329257  87.2930540  53.3541193  78.0629257  85.8430540  52.5641193
  78.7729257  85.7530540  51.7141193  77.3029257  85.0630540  52.3641193
  78.8529257  85.5030540  53.9041193  79.4229257  86.4030540  54.2341193
  77.8629257  85.1530540  55.0541193  77.6529257  84.0630540  55.1441193
  78.3229257  85.3830540  56.0341193  76.9729257  85.7930540  54.9041193
  80.1029257  84.4730540  53.7641193  80.6929257  84.8230540  52.8941193
  80.7129257  84.3630540  54.6841193  79.6829257  83.4630540  53.6041193
  78.3929257  88.3030540  52.6941193  79.0629257  88.7230540  51.7541193
  78.6029257  88.7430540  53.9441193  78.1029257  88.3730540  54.7141193
  79.6729257  89.6830540  54.2141193  80.4029257  89.4630540  53.4541193
  79.2929257  91.1730540  54.3241193  79.9729257  91.9130540  54.7941193
  78.4129257  91.2230540  55.0041193  78.9229257  91.6630540  52.9941193
  78.0029257  91.4030540  52.9641193  80.3429257  89.2130540  55.5041193
  79.7429257  88.4130540  56.1741193  81.5829257  89.6430540  55.7941193
  82.0829257  90.2030540  55.1541193  82.3229257  89.2830540  56.9641193
  81.5929257  88.9630540  57.6941193  83.2129257  87.9530540  56.7941193
  83.9929257  88.0830540  56.0141193  82.5429257  87.2230540  56.2941193
  83.9529257  87.4730540  58.3741193  83.0129257  86.7530540  58.9841193
  83.1729257  90.3730540  57.6141193  83.5829257  91.2330540  56.8441193
  83.3029257  90.5030540  58.9141193  82.7029257  89.8830540  59.4341193
  84.1329257  91.4030540  59.6941193  84.5429257  92.0030540  58.8941193
  83.3429257  92.2230540  60.8041193  82.7129257  91.4930540  61.3541193
  84.3729257  92.7730540  61.8241193  84.8429257  92.0130540  62.4841193
  85.1529257  93.4430540  61.4041193  83.6829257  93.3530540  62.4941193
  82.4329257  93.2230540  60.1641193  82.2129257  92.8430540  59.1441193
  83.1029257  94.1030540  60.0641193  81.2129257  93.5830540  60.9941193
  80.5029257  94.2830540  60.4941193  80.5929257  92.6930540  61.2341193
  81.5029257  94.0730540  61.9541193  85.1129257  90.5730540  60.4541193
  84.7629257  89.7730540  61.3741193  86.4429257  90.7830540  60.2241193
  86.8329257  91.4430540  59.5841193  87.4729257  90.0330540  60.9741193
  86.9829257  89.3830540  61.6741193  88.4429257  89.3430540  59.9741193
  89.0429257  90.0230540  59.3341193  87.7629257  88.7430540  59.3241193
  89.5429257  88.4530540  60.4841193  89.7929257  87.7230540  59.6741193
  89.2229257  87.9230540  61.4041193  91.1229257  89.2330540  60.9041193
  91.8329257  89.5830540  59.2641193  91.5429257  90.5530540  58.8141193
  92.9429257  89.5730540  59.1941193  91.5029257  88.7730540  58.5741193
  88.2629257  90.9930540  61.8341193  88.5129257  92.0930540  61.3941193
  88.5129257  90.6030540  63.1341193  88.1829257  89.7330540  63.4741193
  89.3229257  91.3730540  64.0741193  89.2829257  92.4030540  63.7541193
  88.7029257  91.4230540  65.4741193  88.8029257  90.3830540  65.8741193
  87.6429257  91.7330540  65.5441193  89.4429257  92.4430540  66.3341193
  89.9829257  92.1530540  67.6441193  89.9329257  91.1730540  68.0841193
  90.6329257  93.1330540  68.3541193  91.0829257  93.0130540  69.3241193
  90.7129257  94.4630540  67.8141193  91.2729257  95.4630540  68.6241193
  91.2129257  96.2830540  68.1441193  89.4529257  93.7930540  65.9041193
  89.0629257  94.0130540  64.9241193  90.0629257  94.7930540  66.6541193
  90.1229257  95.7530540  66.1741193  90.7029257  90.8330540  64.2441193
  90.8829257  89.6630540  64.7541193  91.7829257  91.4830540  63.7541193
  91.6029257  92.2930540  63.2041193  93.1729257  91.2630540  64.1441193
  93.2829257  90.2030540  64.3241193  94.0529257  91.6530540  62.9241193
  94.1429257  92.7530540  63.0241193  93.5029257  91.4130540  61.9941193
  95.3929257  90.8630540  62.8541193  95.1429257  89.7930540  63.0041193
  96.1429257  91.2630540  63.5741193  96.0629257  90.8230540  61.4941193
  95.4529257  90.7530540  60.4241193  97.4129257  90.7730540  61.5541193
  97.7929257  91.0430540  62.4341193  97.9629257  90.3030540  60.8641193
  93.5429257  92.1230540  65.3541193  93.5629257  93.3530540  65.3241193
  94.0029257  91.4930540  66.4841193  93.8129257  90.5230540  66.6241193
  94.6429257  92.2930540  67.5641193  94.0129257  93.1530540  67.7641193
  94.8729257  91.3530540  68.8241193  93.9329257  91.0230540  69.3041193
  95.2929257  91.9930540  69.6341193  95.7629257  90.0830540  68.6141193
  96.5729257  90.3930540  67.9241193  95.2329257  89.2330540  68.1341193
  96.3129257  89.6430540  70.0441193  95.5029257  89.2530540  70.6941193
  96.9029257  90.4230540  70.5841193  97.2929257  88.6230540  69.7141193
  96.9929257  87.6830540  69.5241193  98.6229257  88.6530540  69.7741193
  99.3429257  89.7730540  69.8941193  98.9429257  90.5730540  70.3641193
 100.3129257  89.7430540  70.1141193  99.2729257  87.5230540  69.5541193
  98.7329257  86.6930540  69.4341193 100.2429257  87.6430540  69.3641193
  95.9929257  92.9530540  67.2441193  96.2729257  94.0230540  67.8241193
  96.7929257  92.3330540  66.3541193  96.3529257  91.6330540  65.7941193
  98.2029257  92.6830540  66.2541193  98.2529257  93.7330540  66.5241193
  99.1729257  91.8230540  67.2141193  98.9529257  90.7530540  66.9841193
  98.8729257  92.0530540  68.2541193 100.5129257  91.9930540  66.9141193
 100.8129257  91.4130540  66.2141193  98.6329257  92.6030540  64.8441193
  98.4829257  91.5230540  64.2241193  98.9629257  93.7530540  64.1141193
  99.2329257  94.6030540  64.5541193  99.2029257  93.5930540  62.7241193
  99.0629257  92.6130540  62.2941193  98.1929257  94.5130540  61.9441193
  98.5729257  94.5730540  60.9041193  98.1729257  95.5330540  62.3841193
  96.4629257  93.9830540  61.8341193  96.0829257  94.4230540  63.0241193
 100.6229257  94.0930540  62.3341193 100.9429257  95.2930540  62.3241193
 101.4929257  93.1230540  61.8841193 101.2629257  92.1530540  61.9441193
 102.6429257  93.3330540  60.9341193 103.2129257  94.0830540  61.4641193
 103.5429257  92.0930540  60.9341193 102.8429257  91.2430540  60.8341193
 103.9529257  92.0130540  61.9641193 104.5329257  91.8430540  59.9041193
 104.5929257  92.6430540  58.8841193 105.2729257  90.8230540  59.9841193
 102.1729257  93.8530540  59.6141193 101.5529257  93.1730540  58.7941193
 102.2529257  95.1030540  59.3541193 102.6229257  95.7330540  60.0341193
 101.8629257  95.6430540  58.0941193 100.8729257  95.2930540  57.8241193
 101.5529257  97.1730540  58.3141193 101.4229257  97.7230540  57.3641193
 102.4029257  97.6830540  58.8141193 100.2529257  97.4530540  59.0541193
 100.1629257  96.8730540  59.9941193 100.1729257  98.8730540  59.5841193
 100.8429257  99.0230540  60.4541193 100.4429257  99.5330540  58.7341193
  99.1129257  99.0530540  59.8641193  98.9629257  97.2230540  58.1841193
  99.0729257  96.3330540  57.5241193  98.1429257  97.0830540  58.9241193
  98.8029257  98.0930540  57.5041193 102.7829257  95.4930540  56.8841193
 102.3829257  95.6830540  55.7941193 104.0329257  95.0430540  57.0741193
 104.4429257  94.9430540  57.9841193 104.8929257  94.7230540  55.8741193
 104.7429257  95.4630540  55.1041193 105.8929257  94.5530540  56.2241193
 104.5429257  93.3830540  55.2441193 104.4629257  93.2530540  54.0041193
 104.3629257  92.3730540  56.1341193 104.4729257  92.5330540  57.1041193
 104.5229257  91.0330540  55.6641193 104.8029257  90.9430540  54.6241193
 105.6229257  90.2930540  56.4841193 105.4029257  90.1230540  57.5541193
 106.4229257  91.0430540  56.6341193 106.4929257  89.1530540  55.8941193
 106.7329257  89.4530540  54.8441193 107.8629257  89.1530540  56.6541193
 107.4929257  89.0230540  57.6941193 108.5529257  88.3230540  56.4141193
 108.2829257  90.1830540  56.5841193 105.6929257  87.8830540  56.0641193
 106.3729257  87.0230540  55.8941193 105.4229257  87.7530540  57.1341193
 104.8029257  87.9230540  55.3941193 103.2529257  90.3030540  55.8841193
 102.6129257  89.9130540  54.9141193 102.8629257  90.2330540  57.1441193
 103.3329257  90.8730540  57.7541193 101.6629257  89.5630540  57.5741193
 101.7629257  88.5030540  57.4541193 101.6129257  89.7930540  58.6241193
 100.3629257  90.0230540  56.8741193  99.4629257  89.2830540  56.4641193
 100.0929257  91.3930540  56.9241193 100.8329257  92.0030540  57.2141193
  98.8229257  91.9530540  56.4741193  98.0529257  91.3830540  56.9841193
  98.7229257  93.4130540  56.8341193  99.7029257  93.9230540  56.7641193
  97.7629257  94.2230540  55.9441193  97.4129257  95.2130540  56.3041193
  98.2029257  94.2830540  54.9241193  96.8329257  93.6230540  55.8641193
  98.3629257  93.5130540  58.3141193  99.1929257  93.1130540  58.9341193
  98.1029257  94.5630540  58.5441193  97.4829257  92.9530540  58.6841193
  98.5329257  91.7230540  54.9641193  97.3929257  91.3330540  54.7441193
  99.3529257  91.9330540  53.9541193 100.6029257  92.6230540  54.1241193
 100.3729257  93.6430540  54.4941193 101.2929257  92.0530540  54.7941193
  99.1529257  91.5430540  52.6141193  98.3729257  92.2030540  52.2841193
 100.4629257  91.7530540  51.9641193 100.2529257  91.9230540  50.8841193
 101.1529257  90.8830540  52.0441193 101.1929257  92.8330540  52.7541193
 100.8329257  93.8430540  52.4641193 102.2929257  92.8330540  52.7041193
  98.6329257  90.1630540  52.3741193  97.6929257  90.0230540  51.5941193
  99.1529257  89.1330540  53.0041193  99.8729257  89.2830540  53.6841193
  98.5729257  87.7930540  52.9341193  98.3929257  87.5630540  51.8941193
  99.6429257  86.8230540  53.5241193  99.2829257  85.7730540  53.6141193
  99.8429257  87.1830540  54.5541193 100.9429257  86.7930540  52.7341193
 101.0329257  86.3130540  51.3941193 100.1429257  86.1330540  50.8041193
 102.2629257  86.3030540  50.7241193 102.3129257  85.9930540  49.6941193
 103.3629257  86.6030540  51.4441193 104.3129257  86.6530540  50.9341193
 102.1529257  87.1030540  53.3941193 102.0329257  87.4030540  54.4241193
 103.3529257  87.1430540  52.7841193 104.2829257  87.3930540  53.2641193
  97.2929257  87.5730540  53.6441193  96.4029257  86.9430540  53.1041193
  97.1529257  88.1630540  54.8941193  97.9529257  88.5730540  55.3241193
  95.9329257  87.9930540  55.6941193  95.8129257  86.9430540  55.9241193
  95.9729257  88.9430540  56.9141193  95.0429257  88.9530540  57.5141193
  96.1929257  89.9830540  56.5741193  97.0529257  88.3830540  57.8141193
  97.4729257  87.2630540  57.6441193  97.4229257  89.2230540  58.7841193
  97.1429257  90.1830540  58.8041193  98.2129257  88.9530540  59.3341193
  94.6629257  88.4630540  54.9341193  93.6029257  87.8430540  55.0041193
  94.7929257  89.7030540  54.3041193  95.5529257  90.3330540  54.3641193
  93.8329257  90.1630540  53.3441193  92.9229257  90.4230540  53.8741193
  94.3829257  91.4830540  52.6041193  95.3729257  91.2030540  52.2041193
  93.4029257  91.9430540  51.4141193  93.6629257  92.8730540  50.8741193
  93.4929257  91.0930540  50.7041193  92.3329257  92.0330540  51.7041193
  94.4829257  92.6630540  53.6541193  95.0729257  92.3330540  54.5341193
  93.4929257  93.0530540  53.9541193  95.3529257  93.8230540  52.9941193
  95.6929257  94.5330540  53.7841193  96.3229257  93.4330540  52.6041193
  94.7229257  94.2930540  52.2141193  93.3129257  89.1230540  52.3541193
  92.1429257  89.0530540  52.1941193  94.2329257  88.3330540  51.7541193
  95.1829257  88.6330540  51.8041193  93.8229257  87.2330540  50.8941193
  93.0629257  87.5430540  50.1941193  95.0829257  86.8030540  50.1041193
  95.9229257  86.4230540  50.7141193  94.7929257  86.0730540  49.3141193
  95.5129257  87.7230540  49.6541193  93.2729257  85.9730540  51.6441193
  92.2429257  85.4730540  51.2841193  93.8629257  85.6030540  52.8041193
  94.7029257  86.0130540  53.1541193  93.3829257  84.4330540  53.5041193
  93.3629257  83.5830540  52.8441193  94.1029257  84.0830540  54.8441193
  93.6129257  83.2830540  55.4341193  94.1429257  85.0930540  55.3041193
  95.4929257  83.7730540  54.5841193  95.5829257  82.8630540  54.8941193
  91.9029257  84.5230540  53.8541193  91.1629257  83.5630540  53.7441193
  91.4429257  85.6230540  54.4141193  92.0829257  86.3430540  54.6641193
  90.1029257  85.8430540  54.9641193  89.6829257  84.8830540  55.1841193
  90.2329257  86.8630540  56.1941193  89.2029257  87.2030540  56.4241193
  90.7629257  87.7430540  55.7841193  90.9329257  86.2130540  57.3841193
  90.2029257  85.3330540  58.2041193  89.1429257  85.2130540  58.0541193
  90.7829257  84.5730540  59.2341193  90.1529257  83.8330540  59.7141193
  92.1529257  84.6730540  59.4641193  92.7729257  83.8830540  60.3841193
  93.6729257  84.2130540  60.3741193  92.2829257  86.3530540  57.6941193
  92.9729257  87.0430540  57.2441193  92.8929257  85.5530540  58.7041193
  93.9429257  85.7330540  58.8641193  89.1729257  86.4830540  53.8641193
  87.9929257  86.3730540  53.9541193  89.6529257  87.0730540  52.7641193
  90.6329257  87.2330540  52.6741193  88.8729257  87.1830540  51.5841193
  87.8529257  87.4830540  51.7741193  89.6129257  88.0830540  50.5541193
  89.0229257  88.0830540  49.6141193  90.6229257  87.7030540  50.2941193
  89.7429257  89.4130540  51.0441193  90.3629257  89.4930540  51.7741193
  88.5729257  85.8430540  50.8941193  87.4729257  85.7530540  50.3441193
  89.5329257  84.8730540  50.8141193  90.5029257  84.9530540  51.0241193
  89.2629257  83.4930540  50.3241193  88.7329257  83.5630540  49.3841193
  90.6029257  82.6830540  50.2041193  91.1429257  82.7930540  51.1641193
  90.4329257  81.2430540  49.8041193  89.9929257  80.7030540  50.6641193
  89.8529257  81.0930540  48.8641193  91.3629257  80.6530540  49.6341193
  91.4329257  83.3130540  49.0841193  91.2929257  84.4130540  49.0141193
  91.1029257  83.0230540  48.0641193  92.9329257  83.0030540  49.1341193
  93.3329257  83.2830540  48.1341193  93.3429257  83.7030540  49.9041193
  93.1729257  81.9530540  49.3941193  88.3229257  82.8030540  51.2341193
  87.3429257  82.1830540  50.8241193  88.4329257  82.8730540  52.5741193
  89.3329257  83.1230540  52.9041193  87.5329257  82.1330540  53.3941193
  87.6529257  81.1130540  53.0741193  87.9429257  82.3830540  54.8841193
  87.9529257  83.4730540  55.1141193  89.0029257  82.0730540  55.0441193
  87.2529257  81.5930540  55.9941193  87.1829257  80.1930540  56.0641193
  87.5129257  79.7630540  55.1241193  86.5229257  79.4730540  57.0741193
  86.3329257  78.4130540  57.0541193  86.0629257  80.2330540  58.2141193
  85.5529257  79.7230540  59.0141193  86.6629257  82.2930540  57.0941193
  86.7329257  83.3730540  57.0741193  86.0829257  81.6330540  58.1241193
  85.6429257  82.2830540  58.8641193  86.0529257  82.5530540  53.2941193
  85.1029257  81.8230540  53.4841193  85.8629257  83.8130540  53.0241193
  86.6729257  84.3730540  52.8941193  84.6029257  84.4730540  52.7841193
  83.9829257  84.0930540  53.5741193  84.6629257  86.0330540  52.8441193
  85.0929257  86.4230540  51.8941193  85.3429257  86.3730540  54.0841193
  86.2829257  86.4030540  53.8841193  83.2329257  86.4730540  53.0041193
  83.1529257  87.5630540  53.1541193  82.4629257  86.3530540  52.2141193
  82.8729257  85.9930540  53.9441193  83.9729257  84.0430540  51.5341193
  82.8929257  83.5730540  51.6541193  84.6229257  84.0030540  50.3441193
  85.5229257  84.4030540  50.2041193  84.2229257  83.0630540  49.2141193
  83.2729257  83.3130540  48.7741193  85.2829257  83.0230540  48.0441193
  84.9529257  82.3830540  47.2041193  86.3029257  82.6630540  48.2641193
  86.3329257  85.2630540  47.7741193  85.4629257  84.3330540  47.3441193
  86.4329257  86.1630540  46.8841193  87.2229257  86.9230540  46.9041193
  85.6229257  85.9330540  45.8441193  85.4929257  86.4730540  45.0041193
  85.0329257  84.7430540  46.0941193  84.2129257  84.3230540  45.5241193
  83.9829257  81.5930540  49.5941193  83.0329257  80.9430540  49.1441193
  84.7929257  80.8830540  50.3841193  85.6029257  81.2830540  50.8041193
  84.5229257  79.4530540  50.7541193  84.3429257  78.9030540  49.8441193
  85.7729257  78.8030540  51.5541193  85.5629257  77.7730540  51.9041193
  85.9329257  79.4230540  52.4641193  87.1229257  78.6330540  50.8441193
  87.3929257  79.5630540  50.2941193  87.0929257  77.8730540  50.0441193
  88.6129257  78.2630540  51.8641193  88.1329257  76.5530540  52.2441193
  88.9129257  76.0730540  52.8641193  87.2129257  76.5330540  52.8741193
  88.0729257  75.8830540  51.3641193  83.2329257  79.2430540  51.5641193
  82.3929257  78.3530540  51.2341193  83.0629257  80.0830540  52.6641193
  83.7329257  80.7730540  52.9141193  81.8829257  80.1530540  53.5241193
  81.6229257  79.1330540  53.7741193  82.1729257  80.9530540  54.7941193
  82.5029257  81.9530540  54.4541193  80.9329257  81.0930540  55.7141193
  80.5629257  80.0830540  55.9541193  81.3329257  81.6430540  56.5841193
  80.1329257  81.7130540  55.2241193  83.3829257  80.3330540  55.6141193
  83.7429257  81.0930540  56.3341193  84.2629257  80.0830540  54.9841193
  83.0029257  79.0230540  56.3941193  82.5129257  78.3130540  55.6841193
  83.9029257  78.5930540  56.8741193  82.3129257  79.1430540  57.2541193
  80.6629257  80.5830540  52.7841193  79.5829257  79.9530540  52.9341193
  80.7229257  81.5730540  51.8841193  81.5429257  82.0930540  51.6641193
  79.6429257  81.9230540  51.0341193  78.8329257  82.2330540  51.6741193
  80.1229257  83.1930540  50.2041193  81.0529257  82.9330540  49.6441193
  79.3429257  83.5830540  49.5241193  80.3029257  84.0330540  50.9141193
  79.2129257  80.8130540  50.0741193  78.0129257  80.5930540  49.9841193
  80.1129257  80.0530540  49.4741193  81.0729257  80.0930540  49.7541193
  79.8529257  79.0330540  48.4341193  79.2529257  79.5730540  47.7241193
  81.1429257  78.6830540  47.7641193  81.7629257  78.0730540  48.4541193
  81.6929257  79.6130540  47.5141193  80.8129257  77.9130540  46.4241193
  80.2429257  78.6230540  45.7941193  80.2529257  76.9730540  46.6241193
  82.0629257  77.5130540  45.5441193  82.1629257  77.9230540  44.3841193
  82.8829257  76.5630540  46.0241193  82.7029257  76.2630540  46.9541193
  83.6429257  76.3830540  45.4041193  79.0629257  77.7730540  48.9941193
  78.1129257  77.3230540  48.3541193  79.3929257  77.3130540  50.1941193
  80.0729257  77.8030540  50.7341193  78.7829257  76.2330540  50.9641193
  78.7829257  75.4030540  50.2741193  79.5829257  75.7430540  52.2441193
  78.9229257  75.0130540  52.7641193  80.8929257  75.3030540  51.7541193
  80.8229257  74.3630540  51.1641193  81.3629257  76.1330540  51.1841193
  81.5629257  74.9930540  52.5841193  79.8929257  76.8230540  53.2541193
  80.7129257  77.4830540  52.8941193  79.0129257  77.4630540  53.4741193
  80.0929257  76.4730540  54.2941193  77.3629257  76.6130540  51.3641193
  76.3829257  75.9130540  51.3541193  77.2029257  77.9430540  51.6541193
  77.8829257  78.6530540  51.4641193  75.8429257  78.4730540  52.0241193
  75.2229257  77.7530540  52.5641193  75.9829257  79.5230540  53.2541193
  74.9229257  79.8130540  53.3841193  76.6529257  80.3630540  52.9641193
  76.7929257  78.6230540  54.6541193  77.9629257  78.6430540  54.0341193
  75.0229257  78.9630540  50.8141193  73.9029257  79.4930540  50.9741193
  75.5329257  79.0030540  49.6241193  76.4829257  78.7130540  49.5441193
  74.7629257  79.2730540  48.4341193  75.4529257  78.9930540  47.6441193
  73.4929257  78.5030540  48.2041193  73.0729257  78.7430540  47.2041193
  72.6929257  78.4730540  48.9741193  73.9429257  77.0030540  48.0041193
  74.4729257  76.6030540  46.9641193  73.7429257  76.2830540  49.1041193
  73.3629257  76.6530540  49.9541193  74.0029257  75.3230540  49.1141193
  74.6229257  80.7830540  48.1941193  73.6829257  81.3330540  47.6841193
  75.6129257  81.5530540  48.7541193  76.2829257  81.0530540  49.2941193
  75.5629257  83.0230540  48.8541193  74.6629257  83.3830540  48.3841193
  75.6629257  83.3930540  50.3541193  75.5829257  84.5030540  50.4741193
  76.6529257  83.0530540  50.7341193  74.5329257  83.0430540  51.3441193
  74.4729257  81.9330540  51.3441193  74.8629257  83.5330540  52.8041193
  73.9929257  83.4530540  53.4941193  75.7029257  82.9230540  53.2041193
  75.1429257  84.6130540  52.7741193  73.2229257  83.6530540  50.9041193
  73.3929257  84.7330540  50.7541193  72.9029257  83.1830540  49.9441193
  72.3429257  83.5630540  51.5841193  76.6229257  83.6930540  47.9941193
  77.6529257  83.1030540  47.6341193  76.4529257  84.9630540  47.6441193
  75.6129257  85.4830540  47.7941193  77.4429257  85.5730540  46.8141193
  77.9729257  84.9130540  46.1441193  76.8829257  86.5130540  45.7241193
  77.7629257  86.9930540  45.2541193  76.3429257  87.3730540  46.1741193
  75.9729257  85.8330540  44.6841193  75.6129257  86.5930540  43.9541193
  75.0529257  85.3930540  45.1141193  76.6129257  84.6930540  43.8941193
  77.6329257  84.9130540  43.3341193  75.9329257  83.5330540  43.8541193
  75.0329257  83.3330540  44.2541193  76.2429257  82.8530540  43.2041193
  78.2929257  86.4530540  47.7741193  77.7529257  87.2930540  48.4841193
  79.6129257  86.3230540  47.8041193  80.4229257  85.4330540  46.8141193
  80.3029257  84.3730540  47.1241193  80.0829257  85.6330540  45.7741193
  80.4329257  87.1130540  48.7241193  80.1129257  87.1130540  49.7541193
  81.7829257  86.4630540  48.5841193  81.7529257  85.5230540  49.1841193
  82.7129257  87.0330540  48.8041193  81.8129257  86.0030540  47.1241193
  82.5829257  85.2230540  46.9041193  82.0929257  86.8230540  46.4341193
  80.4229257  88.6130540  48.3441193  80.8629257  88.9730540  47.2341193
  79.9029257  89.5930540  49.2141193  79.4029257  89.2130540  49.9941193
  80.0529257  91.0130540  49.1241193  80.3829257  91.2630540  48.1241193
  78.6129257  91.5530540  49.5541193  77.8629257  91.0330540  48.9141193
  78.4429257  91.3530540  50.6341193  78.4829257  92.6530540  49.4241193
  81.1529257  91.5730540  49.9441193  82.3029257  91.6030540  49.4741193
  81.0429257  92.0130540  51.2141193  80.2629257  91.8730540  51.8141193
  82.1729257  92.7830540  51.8341193  82.9029257  93.0330540  51.0841193
  81.8329257  94.1130540  52.4641193  82.7729257  94.4530540  52.9541193
  80.9329257  93.9630540  53.1041193  81.4329257  95.1930540  51.3441193
  80.4129257  94.9530540  50.9841193  82.0929257  95.1030540  50.4441193
  81.5329257  96.6530540  51.8441193  80.7229257  97.0730540  52.6241193
  82.4629257  97.4630540  51.3241193  83.0129257  97.2930540  50.5041193
  82.4529257  98.3930540  51.7041193  82.9229257  91.9430540  52.8141193
  82.3629257  91.4230540  53.7541193  84.2929257  91.8830540  52.6441193
  84.7229257  92.1130540  51.7741193  85.1629257  91.4930540  53.7041193
  84.6529257  90.7630540  54.3141193  86.4329257  90.8830540  53.1141193
  86.8029257  91.5830540  52.3341193  86.2029257  89.8930540  52.6741193
  87.5329257  90.7130540  54.0741193  87.3629257  90.0230540  55.3541193
  86.3629257  89.6730540  55.5641193  88.4529257  90.0330540  56.2341193
  88.5329257  89.5530540  57.2041193  89.6829257  90.5130540  55.7241193
  90.5629257  90.4530540  56.3541193  88.7829257  91.1430540  53.7041193
  88.8229257  91.4430540  52.6641193  89.8629257  91.2230540  54.5241193
  90.8029257  91.6430540  54.1841193  85.5729257  92.8130540  54.4441193
  85.9729257  93.7930540  53.7841193  85.3529257  92.9230540  55.7541193
  84.7629257  92.2830540  56.2341193  85.7929257  94.0930540  56.5741193
  86.1729257  94.9430540  56.0341193  84.5929257  94.6130540  57.2341193
  84.1729257  93.8330540  57.9141193  85.0229257  95.8030540  58.1441193
  84.1229257  96.1530540  58.6941193  85.7029257  95.4730540  58.9641193
  85.4229257  96.6330540  57.5341193  83.4529257  94.9530540  56.2841193
  83.1829257  94.0230540  55.7341193  83.8129257  95.6330540  55.4841193
  82.2529257  95.6430540  56.9641193  81.7929257  95.0530540  57.7841193
  82.3929257  96.6430540  57.4341193  81.4629257  95.8730540  56.2141193
  86.8929257  93.6430540  57.4441193  86.8029257  92.5630540  58.0941193
  88.0729257  94.3430540  57.3641193  88.1929257  95.1630540  56.8041193
  89.2629257  93.9630540  58.1541193  89.1829257  92.9930540  58.6241193
  90.5129257  94.0330540  57.2941193  90.7029257  94.9730540  56.7341193
  90.2429257  93.3030540  56.5041193  92.8829257  93.4230540  57.0141193
  91.8229257  93.5330540  57.8241193  93.8229257  92.8130540  57.7341193
  94.7229257  92.3130540  57.4041193  93.3529257  92.4530540  58.9241193
  93.7229257  91.7930540  59.5641193  92.0429257  92.9730540  59.0141193
  91.5829257  92.8530540  59.9841193  89.3729257  95.0130540  59.2141193
  89.7429257  96.1430540  58.8841193  89.1329257  94.7030540  60.4941193
  88.6429257  93.9230540  60.8741193  89.3229257  95.6430540  61.5841193
  89.4129257  96.6530540  61.2141193  88.1029257  95.5830540  62.4441193
  88.0529257  94.5930540  62.9341193  88.1629257  96.5430540  63.7241193
  88.8629257  96.1130540  64.4741193  88.4029257  97.5930540  63.4541193
  87.1629257  96.5430540  64.1941193  86.7529257  95.8230540  61.8241193
  86.5829257  95.1330540  60.9641193  85.9429257  95.5330540  62.5341193
  86.5929257  96.9030540  61.6441193  90.5429257  95.4230540  62.4841193
  90.8129257  94.3630540  63.0041193  91.3529257  96.4730540  62.7841193
  90.9529257  97.3630540  62.5541193  92.6529257  96.3130540  63.4741193
  92.8229257  95.2730540  63.7041193  93.7829257  96.8730540  62.5941193
  94.6729257  96.2730540  62.8841193  93.9629257  97.9530540  62.7741193
  93.5429257  96.9030540  61.0841193  92.5729257  97.3830540  60.8341193
  94.6929257  97.6330540  60.3141193  95.7029257  97.3230540  60.6541193
  94.7229257  97.4630540  59.2141193  94.6229257  98.7130540  60.5541193
  93.4729257  95.4630540  60.4241193  94.5229257  95.1230540  60.3841193
  92.8929257  94.7430540  61.0341193  93.0829257  95.4730540  59.3841193
  92.6929257  96.9830540  64.8641193  91.9929257  97.8430540  65.2041193
  93.5129257  96.3730540  65.6541193  93.8529257  95.5330540  65.2341193
  93.9529257  96.6430540  66.9741193  93.3429257  97.3030540  67.5741193
  94.0229257  95.6230540  67.3441193  95.1929257  97.3930540  66.9741193
  95.2229257  98.4730540  66.3441193  96.2729257  96.9230540  67.5641193
  96.2529257  96.0230540  67.9841193  97.6129257  97.4730540  67.4941193
  97.6129257  98.5330540  67.6641193  98.5029257  96.8630540  68.5541193
  98.5729257  95.7630540  68.3841193  97.9629257  96.9730540  69.5241193
  99.7629257  97.6230540  68.6841193 100.8929257  97.3330540  68.2541193
  99.6429257  98.8030540  69.3241193  98.8929257  99.0130540  69.9541193
 100.4529257  99.3930540  69.3341193  98.2229257  97.1830540  66.0841193
  98.5829257  96.0030540  65.7741193  98.4229257  98.2130540  65.2141193
  98.2229257  99.1530540  65.4841193  98.9729257  98.0530540  63.8841193
  98.9829257  97.0130540  63.6041193  98.0729257  98.7930540  62.8641193
  97.0829257  98.2930540  62.8241193  97.9129257  99.8830540  63.0241193
  98.6329257  98.7230540  61.9041193 100.3829257  98.6830540  63.7141193
 100.6029257  99.8230540  64.2141193 101.3129257  97.9730540  63.1041193
 101.2329257  97.0230540  62.8341193 102.6629257  98.3630540  63.2241193
 102.6729257  99.4330540  63.2941193 103.1729257  97.7530540  64.5541193
 102.6429257  98.2330540  65.4041193 104.2529257  97.9930540  64.6641193
 104.2529257  95.5130540  64.4041193 103.1329257  96.2830540  64.6441193
 103.8629257  94.2530540  64.6441193 104.3029257  93.2730540  64.4541193
 102.5529257  94.1930540  65.0341193 102.0329257  93.3430540  65.0041193
 102.0629257  95.5030540  65.0741193 101.0529257  95.6130540  65.4641193
 103.5429257  98.0130540  62.0941193 103.2829257  97.1130540  61.2841193
 104.5829257  98.8430540  62.0241193 104.5929257  99.5430540  62.7341193
 105.4529257  98.7630540  60.8541193 105.2829257  97.9330540  60.1841193
 105.3429257 100.0130540  59.9941193 105.3929257 100.8330540  60.7441193
 106.5229257 100.0630540  58.9941193 107.5129257 100.1830540  59.4841193
 106.4829257  99.1730540  58.3341193 106.3429257 100.9330540  58.3341193
 104.0129257 100.1230540  59.2941193 103.9329257  99.4530540  58.4141193
 103.1429257  99.8530540  59.9241193 103.7729257 101.1230540  58.8641193
 106.8229257  98.6830540  61.4841193 107.2229257  99.5830540  62.2141193
 107.5729257  97.5730540  61.2641193 107.2829257  96.9130540  60.5841193
 108.8629257  97.3130540  61.8641193 108.6729257  97.5230540  62.9141193
 109.3529257  95.8630540  61.7341193 110.3929257  95.8630540  62.1141193
 109.4829257  95.4030540  60.7341193 108.5629257  94.9530540  62.5641193
 108.9729257  94.7030540  63.8441193 109.9029257  95.1130540  64.2041193
 108.2029257  93.8230540  64.6541193 108.5329257  93.4230540  65.6041193
 107.0429257  93.2130540  64.1741193 106.2829257  92.4530540  65.0341193
 106.4729257  92.6930540  65.9441193 107.3429257  94.4030540  62.0941193
 106.9329257  94.6930540  61.1341193 106.6029257  93.5230540  62.9241193
 105.7029257  93.0730540  62.5241193 109.9229257  98.2730540  61.4141193
 109.9929257  98.7530540  60.2641193 110.8929257  98.5430540  62.2441193
 110.8629257  98.2330540  63.1941193 111.9329257  99.5230540  61.8641193
 111.2829257 100.3030540  61.4841193 112.7929257 100.0230540  63.0841193
 113.5729257 100.7830540  62.8541193 113.3629257  99.1930540  63.5441193
 111.7629257 100.7030540  64.0641193 110.7429257 101.1830540  63.6041193
 112.2029257 100.8030540  65.3441193 113.0829257 100.4530540  65.6741193
 111.4829257 101.0030540  66.0041193 112.7929257  99.1230540  60.6941193
 113.1829257  99.9630540  59.8541193 112.9829257  97.8130540  60.4241193
 112.5029257  97.1430540  60.9841193 113.6229257  97.2630540  59.2541193
 114.4329257  97.8830540  58.9141193 114.2629257  95.8730540  59.5841193
 115.1029257  96.1230540  60.2741193 114.7629257  95.4130540  58.7041193
 113.3029257  94.8230540  60.0841193 112.1629257  95.2030540  60.4241193
 113.6429257  93.5330540  59.9841193 114.6229257  93.3330540  60.0541193
 112.9229257  92.8530540  60.1241193 112.6929257  97.1830540  57.9741193
 113.1229257  96.7330540  56.9341193 111.4029257  97.4530540  58.0941193
 111.0729257  97.7630540  58.9841193 110.3829257  97.4830540  57.0141193
 110.6129257  96.6830540  56.3241193 108.9729257  97.2830540  57.5941193
 108.2629257  97.5930540  56.7941193 108.6929257  98.0130540  58.3841193
 107.2929257  95.7330540  58.3641193 108.5829257  95.9530540  58.0641193
 107.2429257  94.3930540  58.5041193 106.3829257  93.7630540  58.7341193
 108.5429257  93.8830540  58.4441193 108.8229257  92.9330540  58.5941193
 109.4029257  94.8430540  58.1441193 110.4729257  94.7330540  58.0741193
 110.3529257  98.7030540  56.2141193 109.7529257  98.7630540  55.1841193
 110.8029257  99.8130540  56.7541193 111.3129257  99.7930540  57.6141193
 110.6029257 101.1330540  56.2541193 109.5329257 101.2730540  56.2641193
 111.1529257 102.1730540  57.2441193 112.1929257 101.8530540  57.4741193
 111.1229257 103.6230540  56.6741193 111.4929257 103.7130540  55.6341193
 110.0729257 103.9530540  56.8441193 111.6629257 104.2930540  57.3741193
 110.3229257 102.0530540  58.5441193 110.1829257 100.9830540  58.7941193
 109.2729257 102.3630540  58.3441193 111.0029257 102.6330540  59.7541193
 110.3229257 102.4430540  60.6141193 112.0329257 102.2730540  59.9441193
 111.0929257 103.7330540  59.5941193 111.0629257 101.4330540  54.8241193
 110.2929257 101.9530540  54.0541193 112.3029257 101.0430540  54.4641193
 112.8729257 100.4730540  55.0541193 112.7829257 101.3430540  53.1441193
 112.6529257 102.3930540  52.9241193 114.2329257 101.0830540  53.0941193
 114.6429257 101.1730540  52.0741193 114.5129257 100.0130540  53.1541193
 115.0429257 101.7630540  54.1341193 114.7329257 102.9830540  54.4841193
 116.0129257 101.2130540  54.6941193 111.9729257 100.5730540  51.9941193
 111.6129257 101.1530540  51.0241193 111.6429257  99.2730540  52.2741193
 112.0429257  98.6930540  52.9841193 110.7729257  98.4130540  51.4541193
 111.2529257  98.4330540  50.4841193 110.6629257  96.9830540  52.1141193
 110.0029257  96.2730540  51.5741193 110.2629257  97.1930540  53.1241193
 111.9229257  96.3630540  52.2541193 111.7929257  95.4430540  52.0441193
 109.3929257  98.9730540  51.2641193 108.8629257  98.9430540  50.1541193
 108.8329257  99.5630540  52.2941193 109.1929257  99.4230540  53.2141193
 107.5629257 100.3730540  52.3041193 106.8429257  99.7330540  51.8041193
 106.9529257 100.4930540  53.7241193 106.3229257 101.3830540  53.9341193
 107.8129257 100.4530540  54.4341193 105.9929257  99.3030540  54.0841193
 105.0229257  99.5230540  53.5741193 106.4529257  97.9130540  53.6341193
 105.8329257  97.0730540  54.0041193 106.4329257  97.8730540  52.5241193
 107.5229257  97.8630540  53.9441193 105.9229257  99.2830540  55.6441193
 106.9029257  99.0730540  56.1041193 105.5029257 100.2130540  56.0641193
 105.0729257  98.6230540  55.9241193 107.6429257 101.6930540  51.5341193
 106.8729257 101.8930540  50.6041193 108.5829257 102.6730540  51.7441193
 109.2529257 102.4430540  52.4441193 108.8229257 103.9030540  50.9341193
 107.9729257 104.5430540  51.0841193 109.9629257 104.7830540  51.3941193
 109.9729257 105.6730540  50.7241193 110.8429257 104.1130540  51.2841193
 109.8329257 105.2030540  52.8841193 109.4629257 104.4030540  53.5541193
 109.1529257 106.0830540  52.9541193 111.2129257 105.6130540  53.5341193
 110.8729257 105.8130540  54.5741193 111.8629257 104.7230540  53.4741193
 111.7529257 106.8930540  52.8941193 111.0829257 107.7430540  53.1541193
 111.8629257 106.7230540  51.7941193 113.1329257 107.2830540  53.4241193
 113.1829257 107.4230540  54.4541193 113.7729257 106.5130540  53.1341193
 113.4029257 108.1730540  52.9541193 108.9329257 103.6230540  49.3741193
 108.3029257 104.3130540  48.5841193 109.6929257 102.5330540  48.9841193
 110.1229257 102.0830540  49.7641193 109.6729257 102.1430540  47.6041193
 109.8429257 103.0030540  46.9741193 110.8329257 101.1330540  47.3941193
 110.7229257 100.4030540  48.2241193 110.7729257 100.4630540  46.0841193
 111.6829257  99.8530540  45.9041193 109.9629257  99.7030540  46.0441193
 110.6829257 101.1930540  45.2541193 112.1629257 101.9030540  47.5141193
 112.1329257 102.7030540  48.2841193 112.4529257 102.3330540  46.5341193
 113.3629257 100.9930540  48.0041193 114.2829257 101.6130540  47.9141193
 113.1829257 100.4330540  48.9541193 113.5129257 100.1930540  47.2541193
 108.3229257 101.6830540  47.0641193 107.9629257 102.0630540  45.8741193
 107.5729257 100.8230540  47.8041193 107.9629257 100.5430540  48.6841193
 106.3229257 100.1930540  47.4641193 106.5329257  99.7830540  46.4841193
 105.8829257  99.2230540  48.5241193 105.8829257  99.8330540  49.4541193
 106.6929257  98.5030540  48.7641193 104.5929257  98.4530540  48.2441193
 104.8129257  98.0930540  47.2141193 103.7729257  99.2130540  48.2341193
 104.1929257  97.4330540  49.2741193 104.7629257  97.2330540  50.4241193
 103.2429257  96.5930540  48.8141193 102.5629257  96.8630540  48.1341193
 103.0529257  95.8130540  49.4141193 105.1329257 101.2730540  47.3241193
 104.3029257 101.3030540  46.3841193 105.1329257 102.3130540  48.2641193
 105.7329257 102.4330540  49.0641193 104.1029257 103.3330540  48.1541193
 103.1829257 102.7930540  48.0341193 104.1429257 104.2230540  49.3841193
 103.8529257 105.2430540  49.0541193 105.1929257 104.4230540  49.6741193
 103.2529257 103.8330540  50.5041193 102.2329257 103.5530540  50.1741193
 103.7429257 102.6230540  51.3841193 104.5829257 102.8730540  52.0541193
 102.8429257 102.2530540  51.9241193 104.1029257 101.7630540  50.7741193
 102.9829257 105.0730540  51.4141193 103.7929257 105.3830540  52.1041193
 102.7029257 105.9230540  50.7541193 102.1229257 104.8830540  52.0941193
 104.2129257 104.2530540  46.9741193 103.2329257 104.8030540  46.4741193
 105.3829257 104.4130540  46.3941193 106.1929257 104.0830540  46.8741193
 105.5029257 105.2230540  45.1941193 104.7429257 105.9930540  45.1741193
 106.8529257 105.8730540  45.0241193 106.9129257 106.3930540  44.0341193
 107.7029257 105.1630540  45.0941193 106.9529257 106.9730540  46.0741193
 106.3029257 108.0730540  45.9341193 107.7629257 106.7930540  47.0841193
 108.2429257 105.9230540  47.1941193 107.8829257 107.5330540  47.7441193
 105.2729257 104.4830540  43.9341193 105.5229257 104.9330540  42.7841193
 104.7729257 103.2430540  44.0641193 104.6429257 102.8830540  44.9841193
 104.3129257 102.3830540  43.0241193 104.9029257 102.6930540  42.1741193
 104.5729257 100.9130540  43.1841193 104.1929257 100.2230540  42.3941193
 104.1229257 100.6330540  44.1541193 106.1329257 100.6430540  43.2941193
 106.4829257 101.2030540  44.1941193 106.6129257 100.9930540  42.3541193
 106.3129257  99.1430540  43.4341193 105.8029257  98.7830540  42.5141193
 105.7829257  98.8730540  44.3741193 107.7229257  98.7930540  43.3541193
 108.2829257  99.3230540  42.7141193 108.1529257  97.5230540  43.4441193
 107.3529257  96.5530540  43.8541193 106.4729257  96.8030540  44.2541193
 107.5529257  95.5830540  43.7241193 109.3629257  97.1730540  43.1141193
 110.1629257  97.7730540  43.1341193 109.6129257  96.2530540  43.4241193
 102.8129257 102.7430540  42.7641193 102.0129257 102.9430540  43.7141193
 102.2729257 102.8230540  41.5141193 102.8429257 102.5230540  40.7541193
 100.8829257 103.0230540  41.3041193 100.4729257 103.4930540  42.1841193
 100.6829257 104.0530540  40.1441193 101.3229257 103.6530540  39.3241193
  99.1429257 104.1430540  39.9041193  99.0929257 104.8130540  39.0141193
  98.6229257 103.1730540  39.7541193  98.6829257 104.7430540  40.7141193
 101.2129257 105.4130540  40.5041193 102.2629257 105.2830540  40.8441193
 100.6429257 105.8630540  41.3441193 101.2729257 106.4430540  39.3641193
 101.5429257 107.4830540  39.6241193 102.0029257 106.0230540  38.6441193
 100.2629257 106.5030540  38.8941193 100.1329257 101.6430540  41.0541193
 100.6329257 100.9130540  40.2441193  99.1229257 101.2730540  41.8341193
  98.7429257 101.9230540  43.0541193  99.6129257 102.1830540  43.7041193
  98.0829257 102.7930540  42.8441193  98.5229257  99.9830540  41.6741193
  99.2329257  99.2230540  41.9741193  97.3829257  99.9630540  42.7541193
  97.3529257  98.9230540  43.1641193  96.4829257 100.4430540  42.3241193
  97.9729257 100.8830540  43.8241193  98.7229257 100.3430540  44.4241193
  97.2229257 101.2330540  44.5641193  98.0029257  99.5730540  40.3141193
  97.6029257 100.4430540  39.5741193  97.8829257  98.2830540  40.0841193
  97.9929257  97.7430540  40.9141193  97.1929257  97.7730540  38.9041193
  97.1429257  98.4930540  38.0941193  98.0129257  96.5630540  38.3141193
  97.4829257  96.0330540  37.4841193  98.1829257  95.8730540  39.1641193
  99.3929257  96.9930540  37.8741193  99.4729257  98.0230540  36.9441193
  98.5629257  98.3930540  36.5041193 100.7129257  98.4730540  36.5141193
 100.7329257  99.2730540  35.7841193 101.8729257  97.9130540  36.9741193
 103.1429257  98.3130540  36.5341193 103.0029257  99.2130540  36.2241193
 100.5629257  96.4130540  38.3041193 100.5029257  95.5930540  39.0141193
 101.8129257  96.8330540  37.8141193 102.7429257  96.4530540  38.2341193
  95.7929257  97.3930540  39.2841193  95.4229257  97.3230540  40.4541193
  94.8529257  97.2330540  38.3241193  94.9329257  97.4130540  36.8741193
  94.9129257  98.4630540  36.5041193  95.8829257  96.9130540  36.5841193
  93.5529257  96.6930540  38.6841193  93.0729257  97.2030540  39.5041193
  92.7429257  96.8130540  37.3841193  92.3229257  97.8430540  37.3541193
  91.9229257  96.0630540  37.3141193  93.7829257  96.5930540  36.2941193
  93.4529257  96.9530540  35.3041193  94.0229257  95.5130540  36.2241193
  93.6929257  95.1930540  39.1841193  94.5029257  94.3830540  38.7541193
  92.8629257  94.8430540  40.2341193  92.4329257  95.5830540  40.7341193
  92.8829257  93.6030540  40.9341193  93.9129257  93.5130540  41.2341193
  91.9129257  93.5830540  42.1341193  91.7529257  92.5430540  42.4741193
  90.9029257  93.8930540  41.8141193  92.4429257  94.4830540  43.3041193
  93.7129257  94.3330540  43.8541193  94.4029257  93.5730540  43.5141193
  94.1329257  95.1130540  44.9441193  95.0629257  94.7330540  45.3441193
  93.2329257  96.1130540  45.4441193  93.4629257  96.6830540  46.3341193
  91.6029257  95.4130540  43.8641193  90.6329257  95.5830540  43.4241193
  91.9429257  96.2830540  44.8941193  91.0829257  96.8030540  45.2941193
  92.6729257  92.3130540  40.1341193  92.0929257  92.3730540  39.0541193
  93.2129257  91.1230540  40.5041193  94.0629257  90.9230540  41.6741193
  95.0829257  91.2830540  41.4341193  93.6829257  91.4930540  42.5441193
  92.7829257  89.7930540  39.9941193  92.8329257  89.8330540  38.9141193
  93.7129257  88.8130540  40.5841193  94.5129257  88.5330540  39.8741193
  93.1529257  87.8730540  40.8241193  94.1029257  89.4630540  41.9041193
  95.1229257  89.0730540  42.1441193  93.3129257  89.2030540  42.6341193
  91.4029257  89.4430540  40.2441193  90.8029257  90.1630540  41.0341193
  90.9329257  88.3130540  39.7041193  91.4529257  87.8530540  38.9941193
  89.6729257  87.6130540  40.1341193  89.3929257  88.2830540  40.9241193
  88.6629257  87.4930540  38.9941193  87.7929257  86.9130540  39.3541193
  89.1229257  86.9630540  37.7341193  88.2629257  86.9030540  37.2941193
  88.3729257  89.0030540  38.6241193  88.4129257  89.7030540  39.4841193
  89.1729257  89.3430540  37.9241193  87.4229257  89.1330540  38.0541193
  89.9729257  86.2930540  40.7341193  90.9929257  85.6630540  40.4041193
  89.0829257  85.7930540  41.5841193  88.3929257  86.4430540  41.8841193
  89.1929257  84.4930540  42.1941193  90.1329257  83.9930540  41.9841193
  89.0229257  84.5730540  43.7741193  88.0529257  85.0630540  44.0041193
  89.7829257  85.2830540  44.1541193  89.3129257  83.3230540  44.6241193
  88.5129257  82.5730540  44.4741193  90.7429257  82.7730540  44.3041193
  91.0129257  82.0430540  45.1041193  90.9329257  82.2130540  43.3641193
  91.4129257  83.6430540  44.4441193  89.2229257  83.7030540  46.1741193
  88.2929257  84.3030540  46.2641193  89.1929257  82.8030540  46.8241193
  90.0129257  84.4230540  46.4841193  88.0729257  83.5730540  41.8141193
  86.8829257  83.9330540  41.8941193  88.3929257  82.3330540  41.2041193
  89.3429257  82.0430540  41.0941193  87.3529257  81.3730540  40.8941193
  86.3729257  81.7830540  41.0841193  87.5229257  80.9330540  39.3941193
  86.8029257  80.1330540  39.1141193  88.5329257  80.4830540  39.2341193
  87.1929257  82.0430540  38.4341193  87.4129257  81.8030540  37.3741193
  87.6729257  82.9730540  38.8141193  85.7029257  82.4930540  38.4541193
  85.1029257  81.7230540  37.9241193  85.2529257  82.4930540  39.4741193
  85.4729257  83.9230540  37.8641193  86.0229257  84.7430540  38.3741193
  84.3929257  84.1730540  37.8441193  86.0029257  83.9330540  36.4741193
  85.8029257  84.8630540  36.0441193  87.0229257  83.7130540  36.5041193
  85.5129257  83.2030540  35.9241193  87.4829257  80.1430540  41.7041193
  88.5929257  79.6730540  41.8941193  86.3829257  79.5730540  42.0841193
  85.5229257  79.9930540  41.7941193  86.2629257  78.3330540  42.8841193
  87.2329257  78.0330540  43.2241193  85.5229257  78.5430540  44.1841193
  85.3829257  77.6230540  44.7941193  84.5029257  78.9930540  44.0841193
  86.1729257  79.5930540  45.0841193  86.3029257  80.5430540  44.5041193
  85.2029257  79.9830540  46.2441193  85.7329257  80.6130540  46.9941193
  84.3629257  80.5130540  45.7541193  84.7929257  79.0830540  46.7541193
  87.4829257  79.0230540  45.5841193  87.3629257  78.0030540  46.0041193
  88.2629257  78.9630540  44.7941193  87.9429257  79.7030540  46.3241193
  85.6029257  77.2030540  41.9741193  84.8929257  77.5830540  41.0541193
  85.8729257  75.8830540  42.2141193  86.6229257  75.6430540  42.8341193
  85.1429257  74.7830540  41.6141193  85.0429257  74.9330540  40.5441193
  85.9929257  73.4330540  41.8341193  86.4429257  73.6130540  42.8341193
  86.6529257  73.4530540  40.9541193  85.1329257  72.1030540  41.7441193
  84.0329257  72.0930540  41.2441193  85.6229257  70.9730540  42.3141193
  86.4929257  70.9630540  42.7941193  84.9229257  70.2630540  42.2841193
  83.6929257  74.7630540  42.2041193  83.5029257  74.6130540  43.4141193
  82.6429257  75.0830540  41.4941193  82.6329257  75.2730540  40.0441193
  83.1829257  76.1630540  39.6741193  82.9629257  74.3230540  39.5641193
  81.3229257  75.3130540  42.1141193  81.4529257  75.8630540  43.0341193
  80.5829257  76.0630540  40.9641193  80.9829257  77.1030540  40.9641193
  79.4829257  76.1130540  41.0941193  81.1329257  75.4630540  39.6941193
  81.1029257  76.0130540  38.7341193  80.5429257  74.5230540  39.5741193
  80.6229257  74.0230540  42.5441193  79.4729257  74.0530540  43.0241193
  81.2629257  72.8330540  42.4141193  82.1229257  72.6630540  41.9541193
  80.6329257  71.5330540  42.8141193  79.5629257  71.5430540  42.6741193
  81.1829257  70.3230540  41.8541193  80.8029257  69.3530540  42.2441193
  82.2929257  70.3030540  41.7641193  80.6829257  70.5130540  40.4241193
  79.5729257  71.0830540  40.2541193  81.3829257  70.0830540  39.4641193
  80.9029257  71.0830540  44.2641193  80.4229257  70.0730540  44.7541193
  81.5729257  71.9630540  45.0141193  81.8029257  72.8430540  44.6241193
  81.9829257  71.7030540  46.3841193  81.8229257  70.6730540  46.6841193
  83.4529257  72.2430540  46.5341193  83.4929257  73.3330540  46.3041193
  83.8829257  72.0230540  47.9741193  84.1929257  70.9730540  48.1641193
  84.8029257  72.6030540  48.1841193  83.1929257  72.3330540  48.7941193
  84.3929257  71.4930540  45.5041193  85.4429257  71.6730540  45.8141193
  84.1729257  71.9930540  44.5341193  84.2529257  69.9830540  45.3641193
  84.8129257  69.5030540  46.1941193  83.2029257  69.6530540  45.2141193
  84.8329257  69.6430540  44.4741193  80.9829257  72.5430540  47.1841193
  80.7429257  73.7330540  47.0041193  80.2929257  71.8130540  48.0641193
  80.6229257  70.8830540  48.2041193  79.2029257  72.3930540  48.8241193
  79.1829257  73.4530540  48.6641193  77.8729257  71.6830540  48.3941193
  77.1929257  72.2130540  49.1041193  77.7729257  70.6230540  48.7141193
  77.3729257  71.8830540  46.9041193  76.5729257  71.1230540  46.8741193
  78.2129257  71.7030540  46.1941193  76.7129257  73.2230540  46.5241193
  76.3429257  73.2230540  45.4741193  75.7029257  73.2330540  46.9841193
  77.5029257  74.5230540  46.6841193  78.4529257  74.3030540  46.1541193
  77.6329257  74.6830540  47.7841193  76.9229257  75.7330540  46.0641193
  75.9329257  75.9630540  46.2941193  77.4829257  76.5830540  46.2941193
  77.1329257  75.6530540  45.0441193  79.3429257  72.2730540  50.3341193
  78.5929257  72.7730540  51.1941193  80.4729257  71.7030540  50.6941193
  81.1129257  71.4930540  49.9541193  80.9329257  71.6230540  52.1241193
  80.2729257  72.1930540  52.7541193  80.8829257  70.1730540  52.6241193
  81.1129257  70.0430540  53.7041193  81.5829257  69.6130540  51.9741193
  79.5129257  69.5530540  52.4441193  78.3829257  70.1230540  52.5241193
  79.5529257  68.2030540  52.0641193  80.4029257  67.8930540  51.6341193
  78.7129257  67.6730540  51.9241193  82.3429257  72.0430540  52.3541193
  83.2329257  71.8930540  51.5241193  82.5729257  72.6230540  53.5841193
  82.0029257  72.4030540  54.3741193  83.7729257  73.4030540  53.8441193
  83.8029257  74.0930540  53.0141193  83.6329257  74.2230540  55.0441193
  82.5929257  74.6030540  55.0241193  83.8829257  73.3630540  56.3941193
  83.8529257  74.2230540  57.0941193  83.1529257  72.5630540  56.6541193
  84.9329257  73.0030540  56.4741193  84.6129257  75.4630540  54.9841193
  85.6829257  75.1530540  54.9441193  84.4429257  75.9630540  55.9641193
  84.4329257  76.5730540  53.9641193  84.8429257  76.2530540  52.9841193
  83.3529257  76.8130540  53.8541193  84.8229257  77.5130540  54.4141193
  85.0329257  72.5530540  53.7941193  86.0729257  72.9630540  53.3641193
  84.9129257  71.2330540  54.1541193  84.1029257  70.7730540  54.5041193
  86.0129257  70.3830540  54.2641193  86.8929257  70.9530540  54.5241193
  85.8129257  69.3830540  55.3741193  86.6729257  68.7030540  55.5441193
  85.0229257  68.6430540  55.1241193  85.4329257  69.9330540  56.7941193
  84.5129257  70.5430540  56.7041193  86.2929257  70.5330540  57.1841193
  85.1129257  68.7830540  57.6541193  83.9429257  68.3930540  57.7941193
  86.0329257  68.1830540  58.2841193  86.3429257  69.6530540  52.9741193
  87.2029257  68.7330540  52.9241193  85.5429257  69.8830540  51.8941193
  84.8629257  70.6030540  51.8341193  85.7629257  69.1830540  50.6541193
  86.1929257  68.2030540  50.7941193  84.3129257  68.9430540  50.0941193
  84.4729257  68.3230540  49.1941193  83.7929257  69.8930540  49.8441193
  83.4129257  68.0330540  50.9641193  83.8629257  67.4730540  52.0241193
  82.2329257  67.7830540  50.5641193  86.7329257  69.7630540  49.5741193
  87.1229257  69.1430540  48.5941193  87.1529257  71.0430540  49.7841193
  86.8129257  71.6330540  50.5241193  88.1029257  71.8130540  49.0041193
  87.7129257  71.7530540  48.0041193  88.1929257  73.2930540  49.4341193
  89.1429257  73.7930540  49.1441193  88.2829257  73.3530540  50.5341193
  87.0429257  74.2030540  49.1041193  85.9729257  74.3030540  50.0541193
  85.9829257  73.5630540  50.8341193  84.8229257  75.1530540  49.8141193
  83.9329257  75.2830540  50.4041193  84.9529257  76.1330540  48.8641193
  84.2029257  76.9030540  48.7641193  87.0429257  75.1030540  48.0741193
  87.7829257  75.1230540  47.2841193  86.0229257  76.0830540  47.9641193
  85.9529257  76.6630540  47.0641193  89.5229257  71.2230540  49.0141193
  90.0929257  70.8830540  50.0141193  90.1129257  71.2330540  47.8441193
  89.5929257  71.4430540  47.0241193  91.5629257  70.8930540  47.5441193
  92.0229257  70.6630540  48.4941193  91.7429257  69.6930540  46.6241193
  92.8129257  69.4230540  46.5641193  91.2229257  70.0430540  45.3041193
  90.3129257  70.3330540  45.3941193  90.9629257  68.5130540  47.3541193
  91.3029257  67.5030540  47.0341193  91.1729257  68.6730540  48.4341193
  89.8529257  68.5630540  47.2341193  92.1629257  72.1030540  46.9341193
  91.4729257  73.0130540  46.4241193  93.4429257  72.2530540  47.0141193
  93.8829257  71.5730540  47.5841193  94.3029257  73.2930540  46.3541193
  93.9829257  74.2030540  46.8441193  95.8229257  73.0830540  46.5341193
  95.9029257  72.9830540  47.6341193  96.2129257  71.8130540  45.7841193
  96.2529257  71.9230540  44.6741193  97.2429257  71.5930540  46.1341193
  95.5629257  70.9530540  46.0241193  96.7429257  74.2730540  46.1741193
  96.6129257  74.5230540  45.0941193  97.7229257  73.8430540  46.4641193
  96.4229257  75.4330540  47.0841193  96.1929257  75.1830540  48.1441193
  97.1929257  76.2430540  47.0541193  95.4329257  75.8830540  46.8541193
  93.9829257  73.5930540  44.9141193  94.0029257  74.7530540  44.5741193
  93.6329257  72.6330540  44.0841193  93.5629257  71.7030540  44.4441193
  93.2729257  72.7430540  42.6841193  93.9129257  73.5230540  42.2941193
  93.4829257  71.5130540  41.7741193  94.5629257  71.5630540  41.5341193
  92.9629257  71.4630540  40.7941193  93.1229257  70.4030540  42.5841193
  92.2029257  70.3930540  42.8541193  91.9429257  73.2730540  42.4041193
  91.6429257  73.6230540  41.2841193  91.1029257  73.3230540  43.4041193
  91.2629257  72.9130540  44.2941193  89.8029257  73.9330540  43.2141193
  89.4229257  73.7030540  42.2341193  88.8529257  73.4130540  44.4041193
  87.8729257  73.9030540  44.2641193  89.2729257  73.7330540  45.3841193
  88.6729257  71.9430540  44.3541193  88.3829257  71.3830540  43.2741193
  88.8129257  71.3030540  45.4241193  89.8329257  75.4830540  43.1341193
  88.7929257  76.0530540  42.8341193  90.9429257  76.1130540  43.4741193
  91.6429257  75.5430540  43.9141193  91.0329257  77.5630540  43.6141193
  90.0829257  78.0830540  43.6741193  91.8529257  78.1130540  44.8741193
  91.7529257  79.2230540  44.8641193  92.9129257  77.7830540  44.9241193
  91.2129257  77.7230540  46.2041193  91.4729257  76.3430540  46.6341193
  92.1829257  75.6930540  46.1441193  90.9429257  75.9430540  47.7941193
  91.2629257  75.0030540  48.2141193  90.1829257  76.7930540  48.6141193
  89.8329257  76.4730540  49.5841193  90.5129257  78.6230540  46.9641193
  90.3129257  79.6330540  46.6341193  90.0029257  78.0730540  48.1641193
  89.3729257  78.7030540  48.7841193  91.8029257  78.0530540  42.3641193
  92.9129257  77.6430540  42.1141193  91.2129257  79.0530540  41.5441193
  90.2429257  79.2630540  41.6241193  91.9529257  79.5730540  40.4041193
  92.9729257  79.2230540  40.4341193  91.4729257  79.2330540  39.0441193
  90.5129257  79.7130540  38.7741193  91.3829257  77.8730540  38.8541193
  90.6929257  77.5630540  39.4541193  92.5429257  79.7530540  38.0441193
  93.5629257  79.3730540  38.2541193  92.1929257  79.5730540  37.0041193
  92.7529257  80.8430540  38.1141193  92.0729257  81.1230540  40.5841193
  91.0829257  81.7930540  40.6841193  93.2929257  81.6930540  40.6741193
  94.1529257  81.1930540  40.7341193  93.6329257  83.1230540  40.6641193
  92.8329257  83.7130540  41.0841193  94.9629257  83.4930540  41.2941193
  95.8029257  82.9430540  40.8141193  95.2229257  85.0030540  41.0841193
  94.4629257  85.5030540  41.7241193  96.2429257  85.3230540  41.3641193
  95.1129257  85.3530540  40.0341193  94.9429257  83.0230540  42.7841193
  94.5429257  81.9830540  42.8541193  94.2029257  83.6330540  43.3441193
  96.4229257  82.9730540  43.2741193  96.5629257  82.5130540  44.2741193
  97.0529257  82.4330540  42.5341193  96.8429257  83.9930540  43.4141193
  93.7029257  83.4730540  39.1741193  94.5129257  82.9530540  38.4341193
  92.9029257  84.4430540  38.6241193  92.2329257  84.8730540  39.2241193
  92.8429257  84.8230540  37.2841193  93.4929257  84.1630540  36.7341193
  91.3529257  84.6030540  36.8241193  91.1129257  85.2030540  35.9241193
  90.6629257  85.0530540  37.5641193  90.9529257  83.1230540  36.6241193
  90.8629257  82.5130540  37.5441193  91.6529257  82.5830540  35.9541193
  89.5129257  83.1430540  35.8841193  88.6429257  84.0030540  36.1941193
  89.2429257  82.1230540  35.0841193  90.0029257  81.5330540  34.8141193
  88.4429257  82.3030540  34.5141193  93.2229257  86.2730540  37.1341193
  92.5429257  87.1230540  37.6641193  94.4029257  86.5930540  36.4341193
  94.9429257  85.8030540  36.1741193  94.6729257  87.9830540  36.0741193
  95.4529257  87.8230540  35.3441193  93.4929257  88.6330540  35.3241193
  93.6829257  89.7230540  35.1941193  92.5229257  88.6030540  35.8741193
  93.3329257  88.0630540  33.8841193  94.3729257  87.9830540  33.2041193
  92.1329257  87.7230540  33.3941193  91.3629257  87.9030540  33.9941193
  92.0229257  87.3830540  32.4541193  95.4329257  88.8230540  37.0541193
  95.2029257  90.0330540  37.1741193  96.2829257  88.3430540  37.9241193
  96.3329257  87.3530540  37.9641193  97.0629257  89.0530540  38.9541193
  96.3929257  89.8030540  39.3441193  97.4329257  88.1330540  40.1741193
  97.8729257  87.1830540  39.7841193  96.5429257  87.8230540  40.7641193
  98.3629257  88.7230540  41.1041193  97.9829257  90.0030540  41.6341193
  97.0229257  90.3730540  41.3241193  98.7029257  90.5830540  42.6641193
  98.3829257  91.4730540  43.1741193  99.7829257  89.8430540  43.1941193
 100.5529257  90.1730540  44.3741193 100.2229257  90.9830540  44.7641193
  99.5129257  88.1230540  41.5241193  99.8329257  87.2930540  40.9141193
 100.1529257  88.6130540  42.6441193 100.9829257  88.0530540  43.0441193
  98.1729257  89.8130540  38.4141193  99.2729257  89.2930540  38.2641193
  97.9829257  91.1030540  38.1541193  97.0629257  91.4330540  38.3441193
  99.0029257  91.9430540  37.5441193  99.6729257  91.2530540  37.0441193
  98.4229257  93.0530540  36.6341193  97.8629257  93.7830540  37.2441193
  99.6029257  93.7630540  35.9941193 100.2329257  92.9430540  35.5941193
  99.2829257  94.3330540  35.1041193 100.2929257  94.3130540  36.6641193
  97.5429257  92.5130540  35.5341193  97.2329257  93.4130540  34.9741193
  98.0729257  91.6730540  35.0341193  96.6129257  92.0830540  35.9741193
  99.7629257  92.5630540  38.7741193  99.1829257  92.8630540  39.8141193
 101.1129257  92.6230540  38.6741193 101.4229257  92.2430540  37.8141193
 101.9029257  93.0130540  39.7641193 101.3529257  93.8030540  40.2441193
 102.0729257  91.8430540  40.7641193 101.0429257  91.6730540  41.1541193
 102.8029257  92.0730540  41.5741193 104.0329257  90.5830540  39.6041193
 104.6229257  91.3730540  39.4241193 102.7629257  90.6430540  40.0441193
 104.2329257  89.3830540  39.1041193 105.2029257  89.1530540  38.6641193
 103.1429257  88.6330540  39.1741193 102.2129257  89.4330540  39.7441193
 101.1829257  89.1030540  39.7341193 103.2929257  93.6830540  39.4941193
 104.1029257  93.2430540  38.6741193 103.5629257  94.7330540  40.2341193
 102.8729257  95.0530540  40.8841193 104.8929257  95.2630540  40.4041193
 105.3929257  95.4830540  39.4641193 104.9529257  96.4130540  41.3441193
 105.9529257  96.8130540  41.6341193 104.4629257  96.2130540  42.3241193
 105.1129257  98.5230540  40.0841193 104.3329257  97.6030540  40.7741193
 104.2729257  99.4630540  39.7441193 104.5729257 100.3730540  39.2241193
 103.0029257  99.2030540  40.1741193 102.2529257  99.8630540  40.2241193
 103.0529257  97.9930540  40.8141193 102.1529257  97.6630540  41.3141193
 105.8729257  94.1530540  40.9941193 105.3529257  93.1530540  41.5441193
 107.2029257  94.3330540  40.7741193 107.6129257  95.1030540  40.2841193
 108.2629257  93.3830540  41.1441193 108.0829257  92.4630540  40.6041193
 109.6629257  93.8730540  40.6841193 109.6629257  94.9030540  41.0841193
 109.6129257  93.8930540  39.5741193 110.8929257  93.1030540  41.1041193
 110.6829257  92.0430540  40.8241193 111.0529257  93.1730540  42.2041193
 112.1729257  93.5930540  40.3341193 112.6529257  94.7030540  40.6541193
 112.6829257  92.8930540  39.4741193 108.2729257  92.9130540  42.6541193
 107.9029257  93.6930540  43.5441193 108.5829257  91.6230540  43.0241193
 108.8629257  91.0530540  42.2541193 108.7829257  91.1530540  44.3341193
 107.8329257  91.1330540  44.8341193 109.3329257  89.7030540  44.3241193
 110.2829257  89.5930540  43.7541193 108.5529257  89.1330540  43.7641193
 109.5229257  89.0630540  45.7041193 108.6529257  89.2830540  46.3741193
 110.3429257  89.5230540  46.2941193 109.8029257  87.5530540  45.6641193
 109.7929257  87.0130540  46.6341193 109.0229257  87.1330540  44.9841193
 111.1029257  87.1530540  44.9341193 111.2029257  87.5130540  43.8941193
 111.1229257  86.0430540  44.9241193 112.2529257  87.6130540  45.8141193
 112.1329257  87.4730540  46.8441193 113.1329257  87.1030540  45.5941193
 112.5429257  88.5830540  45.6041193 109.6129257  92.0130540  45.2041193
 110.7829257  92.3030540  44.9241193 109.1029257  92.2430540  46.4541193
 108.3329257  91.7930540  46.8941193 109.8629257  93.0730540  47.4341193
 110.7729257  93.4130540  46.9641193 109.1729257  94.3330540  47.8541193
 108.2629257  94.0430540  48.4241193 110.0229257  95.2230540  48.8441193
 109.6829257  96.2730540  48.9741193 109.8929257  94.8730540  49.8941193
 111.0629257  95.2630540  48.4741193 108.6429257  95.1830540  46.6541193
 108.1029257  94.5630540  45.9141193 109.5229257  95.4730540  46.0341193
 107.8829257  96.4030540  46.9041193 108.4329257  97.1330540  47.5441193
 107.4529257  96.8530540  45.9841193 107.0329257  96.3530540  47.6141193
 110.2129257  92.2130540  48.5941193 109.3129257  91.5130540  49.0841193
 111.5229257  92.2030540  49.0441193 112.3229257  92.6430540  48.6441193
 111.7729257  91.6030540  50.3441193 111.1329257  90.7430540  50.4741193
 113.2829257  91.1630540  50.5241193 113.5829257  90.6130540  49.6041193
 113.4529257  90.4230540  51.3241193 114.2429257  92.1830540  50.6941193
 114.0529257  92.4730540  51.5941193 111.4529257  92.5630540  51.4941193
 111.9829257  93.6930540  51.5441193 110.7629257  92.1830540  52.5441193
 110.2829257  91.3030540  52.5941193 110.5629257  92.9530540  53.7541193
 110.1229257  93.8730540  53.4041193 109.5329257  92.3630540  54.8041193
 109.7129257  92.6930540  55.8541193 109.7629257  91.2730540  54.7341193
 108.0529257  92.5030540  54.3541193 107.4129257  92.2430540  55.2241193
 107.9129257  91.7030540  53.5941193 107.3729257  94.1530540  53.6041193
 108.2529257  95.2730540  54.7141193 108.8229257  94.7130540  55.4841193
 109.0129257  95.8930540  54.1841193 107.6529257  96.0530540  55.2241193
 111.8129257  93.3430540  54.4841193 111.9829257  94.5130540  54.7341193
 112.6629257  92.4030540  54.8741193 112.4429257  91.4330540  54.8241193
 113.9729257  92.7230540  55.4141193 113.9629257  93.7930540  55.5741193
 114.2429257  91.8730540  56.6841193 114.3329257  90.8030540  56.3941193
 113.4129257  91.9130540  57.4141193 115.5429257  92.1330540  57.4341193
 116.2329257  93.1130540  57.0841193 115.9329257  91.3430540  58.3641193
 114.9129257  92.5530540  54.2141193 114.8229257  91.6130540  53.4041193
 115.8029257  93.5630540  53.8941193 115.8329257  94.3430540  54.5141193
 116.6329257  93.5630540  52.7741193 116.4229257  92.7930540  52.0441193
 116.4929257  94.8930540  51.9941193 117.0529257  94.8030540  51.0441193
 116.9929257  95.7230540  52.5441193 115.1029257  95.4530540  51.8241193
 114.6029257  95.5430540  52.8041193 114.5029257  94.6930540  51.2741193
 115.2229257  96.9730540  50.9341193 114.0329257  96.5730540  49.5441193
 113.0229257  96.2730540  49.8841193 113.8429257  97.4630540  48.8941193
 114.4129257  95.8030540  48.8541193 118.0529257  93.3030540  53.1241193
 119.0529257  93.4830540  52.3941193 118.2629257  92.7730540  54.3641193
 117.4829257  92.5130540  54.9241193 119.5829257  92.4330540  54.9041193
 120.2029257  93.3130540  54.8041193 119.6129257  92.3030540  56.4141193
 120.6329257  92.2430540  56.8541193 119.0529257  93.1330540  56.8941193
 119.0429257  91.4330540  56.8141193 120.2929257  91.3530540  54.0541193
 119.6829257  90.4530540  53.3941193 121.6129257  91.4130540  53.9841193
 122.1629257  91.9230540  54.6441193 122.3429257  90.4330540  53.1441193
 121.7929257  89.5130540  52.9941193 122.6729257  91.1930540  51.8741193
  -0.3670743  90.4630540  51.2441193 121.6529257  91.3030540  51.4541193
  -0.3670743  92.1630540  52.0041193   0.1129257  90.0630540  53.8541193
   0.6929257  90.7130540  54.6741193   0.6529257  88.8130540  53.5541193
   1.5129257  88.7530540  53.9741193
