Cpptraj Generated Restart                                                       
  103
  93.7929257 107.0030540  57.5941193  92.4629257 106.5030540  57.8841193
  92.0129257 106.0930540  59.1541193  92.6929257 106.5130540  60.3241193
  92.1929257 106.2230540  61.6341193  92.9829257 106.6930540  62.8441193
  94.1629257 107.0730540  62.7941193  92.5229257 106.2730540  64.0041193
  91.3329257 105.6530540  64.2141193  90.8029257 105.4630540  65.4941193
  91.5129257 106.0730540  66.5241193  91.7929257 105.4630540  67.8441193
  89.5529257 104.7730540  65.6741193  89.0829257 104.6830540  66.9441193
  87.8029257 103.9930540  67.3641193  87.4429257 104.5830540  68.6141193
  86.2029257 104.0930540  69.1641193  85.8929257 105.1030540  70.3441193
  85.6429257 106.5230540  69.9341193  85.2029257 107.4430540  70.8141193
  85.0129257 108.7630540  70.1241193  85.1129257 107.2130540  72.0241193
  86.4529257 102.6130540  69.5841193  85.2729257 102.0930540  70.2741193
  85.4829257 100.9230540  71.0141193  84.2129257 100.0630540  71.2141193
  86.5829257 100.5530540  71.4141193  86.9229257 101.8130540  68.3741193
  87.2329257 100.4230540  68.6841193  86.8329257  99.3230540  67.8141193
  86.3329257  99.5630540  66.7041193  87.0729257  97.9330540  68.3841193
  88.2129257  97.6430540  69.1641193  88.3529257  96.3330540  69.7741193
  89.3229257  96.1530540  70.7741193  89.7329257  96.9830540  71.7641193
  91.0529257  96.4930540  72.3741193  89.0729257  97.9630540  72.2041193
  87.5429257  95.2730540  69.4141193  87.7729257  93.9730540  69.9241193
  87.4629257  93.6330540  71.2241193  87.9429257  92.2130540  71.5541193
  86.9429257  94.3730540  71.9941193  86.4729257  95.5630540  68.5041193
  85.5929257  94.5430540  68.0841193  85.5229257  94.0830540  66.7941193
  85.0029257  92.6930540  66.6341193  85.8129257  94.7530540  65.8241193
  86.1829257  96.9230540  68.0341193  88.0929257 102.5030540  67.5741193
  88.3229257 101.8730540  66.3041193  89.1029257 100.7630540  66.1841193
  88.9029257 100.0830540  64.8641193  89.9129257 100.4330540  66.9841193
  88.8329257 104.3230540  64.5541193  89.3929257 104.4630540  63.2841193
  88.6329257 103.9430540  62.0941193  87.6829257 103.1830540  62.3041193
  89.2929257 104.0430540  60.8741193  90.4329257 104.8530540  60.6841193
  90.8029257 105.2830540  59.3141193  89.9829257 104.8830540  58.2341193
  89.8929257 105.7030540  57.1441193  91.1329257 105.3430540  61.7941193
  90.6729257 105.0830540  63.1141193  94.5529257 106.3230540  57.9941193
  93.8829257 108.0530540  57.9141193  93.8129257 106.9830540  56.4941193
  93.6229257 107.0230540  60.0741193  90.8329257 105.3030540  68.3541193
  92.1229257 104.4430540  67.6241193  92.5429257 106.0230540  68.4141193
  86.9629257 104.1130540  66.6741193  85.4529257 104.1330540  68.3641193
  86.7329257 105.0230540  71.0541193  84.9929257 104.7230540  70.8441193
  85.9029257 108.9230540  69.5141193  84.8429257 109.6230540  70.7841193
  84.2429257 108.6430540  69.3541193  87.2029257 102.6530540  70.3841193
  83.4129257 100.7930540  71.3641193  84.3629257  99.3230540  72.0141193
  84.0429257  99.6130540  70.2241193  86.0329257 101.8330540  67.7241193
  89.0129257  98.3430540  69.3641193  91.3129257  97.1830540  73.1741193
  91.9229257  96.3230540  71.7241193  90.8429257  95.5730540  72.9341193
  87.8029257  91.8830540  72.5941193  87.5429257  91.5830540  70.7541193
  88.9829257  92.1630540  71.2041193  83.9229257  92.7830540  66.7741193
  85.1929257  92.2930540  65.6341193  85.3829257  92.0330540  67.4241193
  85.3429257  97.1230540  67.3841193  89.0229257 102.3830540  68.1441193
  89.8729257  99.6830540  64.5341193  88.1529257  99.2830540  64.8241193
  88.5629257 100.8330540  64.1441193  87.8529257 103.9030540  64.6941193
  89.6329257 106.7230540  57.4641193  90.7529257 105.8230540  56.4841193
  89.0929257 105.4030540  56.4541193
