best_pose1.pdb
21
    1UNL      C    1  12.761  13.171   8.620
    1UNL      O    2  12.783  13.123   8.509
    1UNL      N    3  12.824  13.120   8.735
    1UNL      C    4  12.812  13.175   8.870
    1UNL      C    5  12.825  13.069   8.979
    1UNL      C    6  12.950  12.984   8.962
    1UNL      C    7  12.954  12.873   9.068
    1UNL      C    8  12.953  12.924   8.821
    1UNL      C    9  12.940  13.032   8.714
    1UNL      C   10  12.685  13.418   8.615
    1UNL      C   11  12.578  13.509   8.615
    1UNL      C   12  12.445  13.466   8.618
    1UNL      C   13  12.419  13.329   8.624
    1UNL      C   14  12.525  13.237   8.628
    1UNL      C   15  12.659  13.280   8.625
    1UNL      C   16  12.828  13.593   8.542
    1UNL      O   17  12.814  13.461   8.596
    1UNL      S   18  12.309  13.582   8.615
    1UNL      C   19  12.379  13.716   8.716
    1UNL      O   20  13.067  13.065   8.979
    1UNL      H   21  13.044  13.139   9.039
   0.00000   0.00000   0.00000
