ligand_201.pdb
    37
  -1.3550000   1.3810000   3.2590000   0.0590000   0.8790000   3.0150000
   0.0690000  -0.6070000   2.6520000   1.4240000  -1.0950000   2.3720000
   2.2480000  -1.4170000   3.5260000   2.0600000  -0.9860000   1.1400000
   3.2780000  -1.1070000   1.0020000   1.2420000  -0.6440000  -0.0450000
   1.5340000   0.4900000  -0.7010000   0.8810000   0.9410000  -1.8210000
  -0.0830000   0.1370000  -2.4480000  -0.7230000   0.5640000  -3.6130000
  -1.7220000  -0.2210000  -4.2000000  -2.1170000  -1.4310000  -3.6160000
  -3.1650000  -2.2850000  -4.2680000  -1.4850000  -1.8600000  -2.4430000
  -0.4850000  -1.0730000  -1.8580000   0.1790000  -1.5200000  -0.6020000
  -0.1510000  -2.5720000  -0.0640000  -1.9740000   1.2620000   2.3640000
  -1.3410000   2.4430000   3.5230000  -1.8290000   0.8330000   4.0800000
   0.6610000   1.0510000   3.9150000   0.5170000   1.4680000   2.2120000
  -0.3490000  -1.2070000   3.4690000  -0.5770000  -0.7670000   1.7870000
   2.5490000  -0.4880000   4.0190000   3.1460000  -1.9680000   3.2350000
   1.6730000  -2.0350000   4.2220000   2.3380000   1.1440000  -0.3690000
   1.3240000   1.6710000  -2.3670000  -0.4500000   1.5070000  -4.0790000
  -2.1960000   0.1240000  -5.1170000  -3.8890000  -1.6690000  -4.8110000
  -3.7230000  -2.8580000  -3.5190000  -2.6960000  -2.9820000  -4.9690000
  -1.7680000  -2.8040000  -1.9800000
