ligand_214.pdb
    38
  -2.2670000   0.8460000   1.1410000  -0.7880000   0.6960000   1.3770000
  -0.2420000   1.0890000   2.6140000   1.1230000   0.9500000   2.8610000
   1.7260000   1.3470000   4.1220000   3.0410000   1.1880000   4.3010000
   3.9170000   0.6210000   3.2620000   5.1190000   0.4890000   3.4620000
   3.3170000   0.2500000   2.0670000   1.9310000   0.4120000   1.8650000
   1.4150000   0.0090000   0.6340000   0.0490000   0.1470000   0.3840000
  -0.5760000  -0.2200000  -0.7790000   0.2330000  -0.7390000  -1.8310000
  -0.6300000  -1.0520000  -3.0620000   0.2490000  -1.4060000  -4.1470000
  -1.6860000  -2.1790000  -2.8940000  -2.8670000  -1.7590000  -2.0170000
  -1.0910000  -3.4920000  -2.3700000  -2.2330000  -2.4380000  -4.2070000
  -2.7450000   1.4190000   1.9420000  -2.7420000  -0.1390000   1.1000000
  -2.4540000   1.3800000   0.2040000  -0.8930000   1.5060000   3.3800000
   1.0990000   1.7670000   4.9010000   3.5300000   1.4710000   5.2250000
   2.1010000  -0.4050000  -0.0970000   0.9860000   0.0060000  -2.1220000
   0.7650000  -1.6410000  -1.5080000  -1.1440000  -0.1330000  -3.3720000
  -0.3110000  -1.3730000  -4.9460000  -3.2780000  -0.7980000  -2.3480000
  -3.6850000  -2.4860000  -2.0970000  -2.5950000  -1.6800000  -0.9620000
  -0.2440000  -3.8170000  -2.9850000  -1.8330000  -4.2980000  -2.4180000
  -0.7530000  -3.4040000  -1.3330000  -1.6470000  -3.0830000  -4.6420000
